+ 0 0 1 tcp 40 ------- 1 0.0 1.0 0 0
- 0 0 1 tcp 40 ------- 1 0.0 1.0 0 0
r 0.010213 0 1 tcp 40 ------- 1 0.0 1.0 0 0
+ 0.020427 0 1 tcp 1040 ------- 1 0.0 1.0 1 2
- 0.020427 0 1 tcp 1040 ------- 1 0.0 1.0 1 2
+ 0.020427 0 1 tcp 1040 ------- 1 0.0 1.0 2 3
- 0.025973 0 1 tcp 1040 ------- 1 0.0 1.0 2 3
r 0.035973 0 1 tcp 1040 ------- 1 0.0 1.0 1 2
r 0.04152 0 1 tcp 1040 ------- 1 0.0 1.0 2 3
+ 0.046187 0 1 tcp 1040 ------- 1 0.0 1.0 3 6
- 0.046187 0 1 tcp 1040 ------- 1 0.0 1.0 3 6
+ 0.046187 0 1 tcp 1040 ------- 1 0.0 1.0 4 7
- 0.051733 0 1 tcp 1040 ------- 1 0.0 1.0 4 7
+ 0.051733 0 1 tcp 1040 ------- 1 0.0 1.0 5 8
+ 0.051733 0 1 tcp 1040 ------- 1 0.0 1.0 6 9
- 0.05728 0 1 tcp 1040 ------- 1 0.0 1.0 5 8
r 0.061733 0 1 tcp 1040 ------- 1 0.0 1.0 3 6
- 0.062827 0 1 tcp 1040 ------- 1 0.0 1.0 6 9
r 0.06728 0 1 tcp 1040 ------- 1 0.0 1.0 4 7
+ 0.071947 0 1 tcp 1040 ------- 1 0.0 1.0 7 12
- 0.071947 0 1 tcp 1040 ------- 1 0.0 1.0 7 12
+ 0.071947 0 1 tcp 1040 ------- 1 0.0 1.0 8 13
r 0.072827 0 1 tcp 1040 ------- 1 0.0 1.0 5 8
+ 0.077493 0 1 tcp 1040 ------- 1 0.0 1.0 9 15
+ 0.077493 0 1 tcp 1040 ------- 1 0.0 1.0 10 16
- 0.077493 0 1 tcp 1040 ------- 1 0.0 1.0 8 13
r 0.078373 0 1 tcp 1040 ------- 1 0.0 1.0 6 9
+ 0.08304 0 1 tcp 1040 ------- 1 0.0 1.0 11 18
+ 0.08304 0 1 tcp 1040 ------- 1 0.0 1.0 12 19
- 0.08304 0 1 tcp 1040 ------- 1 0.0 1.0 9 15
r 0.087493 0 1 tcp 1040 ------- 1 0.0 1.0 7 12
+ 0.088587 0 1 tcp 1040 ------- 1 0.0 1.0 13 21
+ 0.088587 0 1 tcp 1040 ------- 1 0.0 1.0 14 22
- 0.088587 0 1 tcp 1040 ------- 1 0.0 1.0 10 16
r 0.09304 0 1 tcp 1040 ------- 1 0.0 1.0 8 13
- 0.094133 0 1 tcp 1040 ------- 1 0.0 1.0 11 18
+ 0.097707 0 1 tcp 1040 ------- 1 0.0 1.0 15 24
+ 0.097707 0 1 tcp 1040 ------- 1 0.0 1.0 16 25
r 0.098587 0 1 tcp 1040 ------- 1 0.0 1.0 9 15
- 0.09968 0 1 tcp 1040 ------- 1 0.0 1.0 12 19
+ 0.103253 0 1 tcp 1040 ------- 1 0.0 1.0 17 27
+ 0.103253 0 1 tcp 1040 ------- 1 0.0 1.0 18 28
r 0.104133 0 1 tcp 1040 ------- 1 0.0 1.0 10 16
- 0.105227 0 1 tcp 1040 ------- 1 0.0 1.0 13 21
+ 0.1088 0 1 tcp 1040 ------- 1 0.0 1.0 19 30
+ 0.1088 0 1 tcp 1040 ------- 1 0.0 1.0 20 31
r 0.10968 0 1 tcp 1040 ------- 1 0.0 1.0 11 18
- 0.110773 0 1 tcp 1040 ------- 1 0.0 1.0 14 22
+ 0.114347 0 1 tcp 1040 ------- 1 0.0 1.0 21 33
+ 0.114347 0 1 tcp 1040 ------- 1 0.0 1.0 22 34
r 0.115227 0 1 tcp 1040 ------- 1 0.0 1.0 12 19
- 0.11632 0 1 tcp 1040 ------- 1 0.0 1.0 15 24
+ 0.119893 0 1 tcp 1040 ------- 1 0.0 1.0 23 36
+ 0.119893 0 1 tcp 1040 ------- 1 0.0 1.0 24 37
r 0.120773 0 1 tcp 1040 ------- 1 0.0 1.0 13 21
- 0.121867 0 1 tcp 1040 ------- 1 0.0 1.0 16 25
+ 0.12544 0 1 tcp 1040 ------- 1 0.0 1.0 25 39
+ 0.12544 0 1 tcp 1040 ------- 1 0.0 1.0 26 40
r 0.12632 0 1 tcp 1040 ------- 1 0.0 1.0 14 22
- 0.127413 0 1 tcp 1040 ------- 1 0.0 1.0 17 27
+ 0.130987 0 1 tcp 1040 ------- 1 0.0 1.0 27 42
+ 0.130987 0 1 tcp 1040 ------- 1 0.0 1.0 28 43
r 0.131867 0 1 tcp 1040 ------- 1 0.0 1.0 15 24
- 0.13296 0 1 tcp 1040 ------- 1 0.0 1.0 18 28
+ 0.136533 0 1 tcp 1040 ------- 1 0.0 1.0 29 45
+ 0.136533 0 1 tcp 1040 ------- 1 0.0 1.0 30 46
r 0.137413 0 1 tcp 1040 ------- 1 0.0 1.0 16 25
- 0.138507 0 1 tcp 1040 ------- 1 0.0 1.0 19 30
+ 0.14208 0 1 tcp 1040 ------- 1 0.0 1.0 31 48
+ 0.14208 0 1 tcp 1040 ------- 1 0.0 1.0 32 49
r 0.14296 0 1 tcp 1040 ------- 1 0.0 1.0 17 27
- 0.144053 0 1 tcp 1040 ------- 1 0.0 1.0 20 31
+ 0.147627 0 1 tcp 1040 ------- 1 0.0 1.0 33 51
+ 0.147627 0 1 tcp 1040 ------- 1 0.0 1.0 34 52
r 0.148507 0 1 tcp 1040 ------- 1 0.0 1.0 18 28
- 0.1496 0 1 tcp 1040 ------- 1 0.0 1.0 21 33
+ 0.153173 0 1 tcp 1040 ------- 1 0.0 1.0 35 54
+ 0.153173 0 1 tcp 1040 ------- 1 0.0 1.0 36 55
r 0.154053 0 1 tcp 1040 ------- 1 0.0 1.0 19 30
- 0.155147 0 1 tcp 1040 ------- 1 0.0 1.0 22 34
+ 0.15872 0 1 tcp 1040 ------- 1 0.0 1.0 37 57
+ 0.15872 0 1 tcp 1040 ------- 1 0.0 1.0 38 58
r 0.1596 0 1 tcp 1040 ------- 1 0.0 1.0 20 31
- 0.160693 0 1 tcp 1040 ------- 1 0.0 1.0 23 36
+ 0.164267 0 1 tcp 1040 ------- 1 0.0 1.0 39 60
r 0.165147 0 1 tcp 1040 ------- 1 0.0 1.0 21 33
- 0.16624 0 1 tcp 1040 ------- 1 0.0 1.0 24 37
+ 0.169813 0 1 tcp 1040 ------- 1 0.0 1.0 40 62
r 0.170693 0 1 tcp 1040 ------- 1 0.0 1.0 22 34
- 0.171787 0 1 tcp 1040 ------- 1 0.0 1.0 25 39
+ 0.17536 0 1 tcp 1040 ------- 1 0.0 1.0 41 64
r 0.17624 0 1 tcp 1040 ------- 1 0.0 1.0 23 36
- 0.177333 0 1 tcp 1040 ------- 1 0.0 1.0 26 40
+ 0.180907 0 1 tcp 1040 ------- 1 0.0 1.0 42 66
r 0.181787 0 1 tcp 1040 ------- 1 0.0 1.0 24 37
- 0.18288 0 1 tcp 1040 ------- 1 0.0 1.0 27 42
+ 0.186453 0 1 tcp 1040 ------- 1 0.0 1.0 43 68
r 0.187333 0 1 tcp 1040 ------- 1 0.0 1.0 25 39
- 0.188427 0 1 tcp 1040 ------- 1 0.0 1.0 28 43
+ 0.192 0 1 tcp 1040 ------- 1 0.0 1.0 44 70
r 0.19288 0 1 tcp 1040 ------- 1 0.0 1.0 26 40
- 0.193973 0 1 tcp 1040 ------- 1 0.0 1.0 29 45
+ 0.197547 0 1 tcp 1040 ------- 1 0.0 1.0 45 72
r 0.198427 0 1 tcp 1040 ------- 1 0.0 1.0 27 42
- 0.19952 0 1 tcp 1040 ------- 1 0.0 1.0 30 46
+ 0.203093 0 1 tcp 1040 ------- 1 0.0 1.0 46 74
r 0.203973 0 1 tcp 1040 ------- 1 0.0 1.0 28 43
- 0.205067 0 1 tcp 1040 ------- 1 0.0 1.0 31 48
+ 0.20864 0 1 tcp 1040 ------- 1 0.0 1.0 47 76
r 0.20952 0 1 tcp 1040 ------- 1 0.0 1.0 29 45
- 0.210613 0 1 tcp 1040 ------- 1 0.0 1.0 32 49
+ 0.214187 0 1 tcp 1040 ------- 1 0.0 1.0 48 78
r 0.215067 0 1 tcp 1040 ------- 1 0.0 1.0 30 46
- 0.21616 0 1 tcp 1040 ------- 1 0.0 1.0 33 51
+ 0.219733 0 1 tcp 1040 ------- 1 0.0 1.0 49 80
r 0.220613 0 1 tcp 1040 ------- 1 0.0 1.0 31 48
- 0.221707 0 1 tcp 1040 ------- 1 0.0 1.0 34 52
+ 0.22528 0 1 tcp 1040 ------- 1 0.0 1.0 50 82
r 0.22616 0 1 tcp 1040 ------- 1 0.0 1.0 32 49
- 0.227253 0 1 tcp 1040 ------- 1 0.0 1.0 35 54
+ 0.230827 0 1 tcp 1040 ------- 1 0.0 1.0 51 84
r 0.231707 0 1 tcp 1040 ------- 1 0.0 1.0 33 51
- 0.2328 0 1 tcp 1040 ------- 1 0.0 1.0 36 55
+ 0.236373 0 1 tcp 1040 ------- 1 0.0 1.0 52 86
r 0.237253 0 1 tcp 1040 ------- 1 0.0 1.0 34 52
- 0.238347 0 1 tcp 1040 ------- 1 0.0 1.0 37 57
+ 0.24192 0 1 tcp 1040 ------- 1 0.0 1.0 53 88
r 0.2428 0 1 tcp 1040 ------- 1 0.0 1.0 35 54
- 0.243893 0 1 tcp 1040 ------- 1 0.0 1.0 38 58
+ 0.247467 0 1 tcp 1040 ------- 1 0.0 1.0 54 90
r 0.248347 0 1 tcp 1040 ------- 1 0.0 1.0 36 55
- 0.24944 0 1 tcp 1040 ------- 1 0.0 1.0 39 60
+ 0.253013 0 1 tcp 1040 ------- 1 0.0 1.0 55 92
r 0.253893 0 1 tcp 1040 ------- 1 0.0 1.0 37 57
- 0.254987 0 1 tcp 1040 ------- 1 0.0 1.0 40 62
+ 0.25856 0 1 tcp 1040 ------- 1 0.0 1.0 56 94
r 0.25944 0 1 tcp 1040 ------- 1 0.0 1.0 38 58
- 0.260533 0 1 tcp 1040 ------- 1 0.0 1.0 41 64
+ 0.264107 0 1 tcp 1040 ------- 1 0.0 1.0 57 96
r 0.264987 0 1 tcp 1040 ------- 1 0.0 1.0 39 60
- 0.26608 0 1 tcp 1040 ------- 1 0.0 1.0 42 66
+ 0.269653 0 1 tcp 1040 ------- 1 0.0 1.0 58 98
r 0.270533 0 1 tcp 1040 ------- 1 0.0 1.0 40 62
- 0.271627 0 1 tcp 1040 ------- 1 0.0 1.0 43 68
+ 0.2752 0 1 tcp 1040 ------- 1 0.0 1.0 59 100
r 0.27608 0 1 tcp 1040 ------- 1 0.0 1.0 41 64
- 0.277173 0 1 tcp 1040 ------- 1 0.0 1.0 44 70
+ 0.280747 0 1 tcp 1040 ------- 1 0.0 1.0 60 102
r 0.281627 0 1 tcp 1040 ------- 1 0.0 1.0 42 66
- 0.28272 0 1 tcp 1040 ------- 1 0.0 1.0 45 72
+ 0.286293 0 1 tcp 1040 ------- 1 0.0 1.0 61 104
r 0.287173 0 1 tcp 1040 ------- 1 0.0 1.0 43 68
- 0.288267 0 1 tcp 1040 ------- 1 0.0 1.0 46 74
+ 0.29184 0 1 tcp 1040 ------- 1 0.0 1.0 62 106
r 0.29272 0 1 tcp 1040 ------- 1 0.0 1.0 44 70
- 0.293813 0 1 tcp 1040 ------- 1 0.0 1.0 47 76
+ 0.297387 0 1 tcp 1040 ------- 1 0.0 1.0 63 108
r 0.298267 0 1 tcp 1040 ------- 1 0.0 1.0 45 72
- 0.29936 0 1 tcp 1040 ------- 1 0.0 1.0 48 78
+ 0.302933 0 1 tcp 1040 ------- 1 0.0 1.0 64 110
r 0.303813 0 1 tcp 1040 ------- 1 0.0 1.0 46 74
- 0.304907 0 1 tcp 1040 ------- 1 0.0 1.0 49 80
+ 0.30848 0 1 tcp 1040 ------- 1 0.0 1.0 65 112
r 0.30936 0 1 tcp 1040 ------- 1 0.0 1.0 47 76
- 0.310453 0 1 tcp 1040 ------- 1 0.0 1.0 50 82
+ 0.314027 0 1 tcp 1040 ------- 1 0.0 1.0 66 114
r 0.314907 0 1 tcp 1040 ------- 1 0.0 1.0 48 78
- 0.316 0 1 tcp 1040 ------- 1 0.0 1.0 51 84
+ 0.319573 0 1 tcp 1040 ------- 1 0.0 1.0 67 116
r 0.320453 0 1 tcp 1040 ------- 1 0.0 1.0 49 80
- 0.321547 0 1 tcp 1040 ------- 1 0.0 1.0 52 86
+ 0.32512 0 1 tcp 1040 ------- 1 0.0 1.0 68 118
r 0.326 0 1 tcp 1040 ------- 1 0.0 1.0 50 82
- 0.327093 0 1 tcp 1040 ------- 1 0.0 1.0 53 88
+ 0.330667 0 1 tcp 1040 ------- 1 0.0 1.0 69 120
r 0.331547 0 1 tcp 1040 ------- 1 0.0 1.0 51 84
- 0.33264 0 1 tcp 1040 ------- 1 0.0 1.0 54 90
+ 0.336213 0 1 tcp 1040 ------- 1 0.0 1.0 70 122
r 0.337093 0 1 tcp 1040 ------- 1 0.0 1.0 52 86
- 0.338187 0 1 tcp 1040 ------- 1 0.0 1.0 55 92
+ 0.34176 0 1 tcp 1040 ------- 1 0.0 1.0 71 124
r 0.34264 0 1 tcp 1040 ------- 1 0.0 1.0 53 88
- 0.343733 0 1 tcp 1040 ------- 1 0.0 1.0 56 94
+ 0.347307 0 1 tcp 1040 ------- 1 0.0 1.0 72 126
r 0.348187 0 1 tcp 1040 ------- 1 0.0 1.0 54 90
- 0.34928 0 1 tcp 1040 ------- 1 0.0 1.0 57 96
+ 0.352853 0 1 tcp 1040 ------- 1 0.0 1.0 73 128
r 0.353733 0 1 tcp 1040 ------- 1 0.0 1.0 55 92
- 0.354827 0 1 tcp 1040 ------- 1 0.0 1.0 58 98
+ 0.3584 0 1 tcp 1040 ------- 1 0.0 1.0 74 130
r 0.35928 0 1 tcp 1040 ------- 1 0.0 1.0 56 94
- 0.360373 0 1 tcp 1040 ------- 1 0.0 1.0 59 100
+ 0.363947 0 1 tcp 1040 ------- 1 0.0 1.0 75 132
r 0.364827 0 1 tcp 1040 ------- 1 0.0 1.0 57 96
- 0.36592 0 1 tcp 1040 ------- 1 0.0 1.0 60 102
+ 0.369493 0 1 tcp 1040 ------- 1 0.0 1.0 76 134
r 0.370373 0 1 tcp 1040 ------- 1 0.0 1.0 58 98
- 0.371467 0 1 tcp 1040 ------- 1 0.0 1.0 61 104
+ 0.37504 0 1 tcp 1040 ------- 1 0.0 1.0 77 136
r 0.37592 0 1 tcp 1040 ------- 1 0.0 1.0 59 100
- 0.377013 0 1 tcp 1040 ------- 1 0.0 1.0 62 106
+ 0.380587 0 1 tcp 1040 ------- 1 0.0 1.0 78 138
r 0.381467 0 1 tcp 1040 ------- 1 0.0 1.0 60 102
- 0.38256 0 1 tcp 1040 ------- 1 0.0 1.0 63 108
+ 0.386133 0 1 tcp 1040 ------- 1 0.0 1.0 79 140
r 0.387013 0 1 tcp 1040 ------- 1 0.0 1.0 61 104
- 0.388107 0 1 tcp 1040 ------- 1 0.0 1.0 64 110
+ 0.39168 0 1 tcp 1040 ------- 1 0.0 1.0 80 142
r 0.39256 0 1 tcp 1040 ------- 1 0.0 1.0 62 106
- 0.393653 0 1 tcp 1040 ------- 1 0.0 1.0 65 112
+ 0.397227 0 1 tcp 1040 ------- 1 0.0 1.0 81 144
r 0.398107 0 1 tcp 1040 ------- 1 0.0 1.0 63 108
- 0.3992 0 1 tcp 1040 ------- 1 0.0 1.0 66 114
+ 0.402773 0 1 tcp 1040 ------- 1 0.0 1.0 82 146
r 0.403653 0 1 tcp 1040 ------- 1 0.0 1.0 64 110
- 0.404747 0 1 tcp 1040 ------- 1 0.0 1.0 67 116
+ 0.40832 0 1 tcp 1040 ------- 1 0.0 1.0 83 148
r 0.4092 0 1 tcp 1040 ------- 1 0.0 1.0 65 112
- 0.410293 0 1 tcp 1040 ------- 1 0.0 1.0 68 118
+ 0.413867 0 1 tcp 1040 ------- 1 0.0 1.0 84 150
r 0.414747 0 1 tcp 1040 ------- 1 0.0 1.0 66 114
- 0.41584 0 1 tcp 1040 ------- 1 0.0 1.0 69 120
+ 0.419413 0 1 tcp 1040 ------- 1 0.0 1.0 85 152
r 0.420293 0 1 tcp 1040 ------- 1 0.0 1.0 67 116
- 0.421387 0 1 tcp 1040 ------- 1 0.0 1.0 70 122
+ 0.42496 0 1 tcp 1040 ------- 1 0.0 1.0 86 154
r 0.42584 0 1 tcp 1040 ------- 1 0.0 1.0 68 118
- 0.426933 0 1 tcp 1040 ------- 1 0.0 1.0 71 124
+ 0.430507 0 1 tcp 1040 ------- 1 0.0 1.0 87 156
r 0.431387 0 1 tcp 1040 ------- 1 0.0 1.0 69 120
- 0.43248 0 1 tcp 1040 ------- 1 0.0 1.0 72 126
+ 0.436053 0 1 tcp 1040 ------- 1 0.0 1.0 88 158
r 0.436933 0 1 tcp 1040 ------- 1 0.0 1.0 70 122
- 0.438027 0 1 tcp 1040 ------- 1 0.0 1.0 73 128
+ 0.4416 0 1 tcp 1040 ------- 1 0.0 1.0 89 160
r 0.44248 0 1 tcp 1040 ------- 1 0.0 1.0 71 124
- 0.443573 0 1 tcp 1040 ------- 1 0.0 1.0 74 130
+ 0.447147 0 1 tcp 1040 ------- 1 0.0 1.0 90 162
r 0.448027 0 1 tcp 1040 ------- 1 0.0 1.0 72 126
- 0.44912 0 1 tcp 1040 ------- 1 0.0 1.0 75 132
+ 0.452693 0 1 tcp 1040 ------- 1 0.0 1.0 91 164
r 0.453573 0 1 tcp 1040 ------- 1 0.0 1.0 73 128
- 0.454667 0 1 tcp 1040 ------- 1 0.0 1.0 76 134
+ 0.45824 0 1 tcp 1040 ------- 1 0.0 1.0 92 166
r 0.45912 0 1 tcp 1040 ------- 1 0.0 1.0 74 130
- 0.460213 0 1 tcp 1040 ------- 1 0.0 1.0 77 136
+ 0.463787 0 1 tcp 1040 ------- 1 0.0 1.0 93 168
r 0.464667 0 1 tcp 1040 ------- 1 0.0 1.0 75 132
- 0.46576 0 1 tcp 1040 ------- 1 0.0 1.0 78 138
+ 0.469333 0 1 tcp 1040 ------- 1 0.0 1.0 94 170
r 0.470213 0 1 tcp 1040 ------- 1 0.0 1.0 76 134
- 0.471307 0 1 tcp 1040 ------- 1 0.0 1.0 79 140
+ 0.47488 0 1 tcp 1040 ------- 1 0.0 1.0 95 172
r 0.47576 0 1 tcp 1040 ------- 1 0.0 1.0 77 136
- 0.476853 0 1 tcp 1040 ------- 1 0.0 1.0 80 142
+ 0.480427 0 1 tcp 1040 ------- 1 0.0 1.0 96 174
r 0.481307 0 1 tcp 1040 ------- 1 0.0 1.0 78 138
- 0.4824 0 1 tcp 1040 ------- 1 0.0 1.0 81 144
+ 0.485973 0 1 tcp 1040 ------- 1 0.0 1.0 97 176
r 0.486853 0 1 tcp 1040 ------- 1 0.0 1.0 79 140
- 0.487947 0 1 tcp 1040 ------- 1 0.0 1.0 82 146
+ 0.49152 0 1 tcp 1040 ------- 1 0.0 1.0 98 178
r 0.4924 0 1 tcp 1040 ------- 1 0.0 1.0 80 142
- 0.493493 0 1 tcp 1040 ------- 1 0.0 1.0 83 148
+ 0.497067 0 1 tcp 1040 ------- 1 0.0 1.0 99 180
r 0.497947 0 1 tcp 1040 ------- 1 0.0 1.0 81 144
- 0.49904 0 1 tcp 1040 ------- 1 0.0 1.0 84 150
+ 0.502613 0 1 tcp 1040 ------- 1 0.0 1.0 100 182
r 0.503493 0 1 tcp 1040 ------- 1 0.0 1.0 82 146
- 0.504587 0 1 tcp 1040 ------- 1 0.0 1.0 85 152
+ 0.50816 0 1 tcp 1040 ------- 1 0.0 1.0 101 184
r 0.50904 0 1 tcp 1040 ------- 1 0.0 1.0 83 148
- 0.510133 0 1 tcp 1040 ------- 1 0.0 1.0 86 154
+ 0.513707 0 1 tcp 1040 ------- 1 0.0 1.0 102 186
r 0.514587 0 1 tcp 1040 ------- 1 0.0 1.0 84 150
- 0.51568 0 1 tcp 1040 ------- 1 0.0 1.0 87 156
+ 0.519253 0 1 tcp 1040 ------- 1 0.0 1.0 103 188
r 0.520133 0 1 tcp 1040 ------- 1 0.0 1.0 85 152
- 0.521227 0 1 tcp 1040 ------- 1 0.0 1.0 88 158
+ 0.5248 0 1 tcp 1040 ------- 1 0.0 1.0 104 190
r 0.52568 0 1 tcp 1040 ------- 1 0.0 1.0 86 154
- 0.526773 0 1 tcp 1040 ------- 1 0.0 1.0 89 160
+ 0.530347 0 1 tcp 1040 ------- 1 0.0 1.0 105 192
r 0.531227 0 1 tcp 1040 ------- 1 0.0 1.0 87 156
- 0.53232 0 1 tcp 1040 ------- 1 0.0 1.0 90 162
+ 0.535893 0 1 tcp 1040 ------- 1 0.0 1.0 106 194
r 0.536773 0 1 tcp 1040 ------- 1 0.0 1.0 88 158
- 0.537867 0 1 tcp 1040 ------- 1 0.0 1.0 91 164
+ 0.54144 0 1 tcp 1040 ------- 1 0.0 1.0 107 196
r 0.54232 0 1 tcp 1040 ------- 1 0.0 1.0 89 160
- 0.543413 0 1 tcp 1040 ------- 1 0.0 1.0 92 166
+ 0.546987 0 1 tcp 1040 ------- 1 0.0 1.0 108 198
r 0.547867 0 1 tcp 1040 ------- 1 0.0 1.0 90 162
- 0.54896 0 1 tcp 1040 ------- 1 0.0 1.0 93 168
+ 0.552533 0 1 tcp 1040 ------- 1 0.0 1.0 109 200
r 0.553413 0 1 tcp 1040 ------- 1 0.0 1.0 91 164
- 0.554507 0 1 tcp 1040 ------- 1 0.0 1.0 94 170
+ 0.55808 0 1 tcp 1040 ------- 1 0.0 1.0 110 202
r 0.55896 0 1 tcp 1040 ------- 1 0.0 1.0 92 166
- 0.560053 0 1 tcp 1040 ------- 1 0.0 1.0 95 172
+ 0.563627 0 1 tcp 1040 ------- 1 0.0 1.0 111 204
r 0.564507 0 1 tcp 1040 ------- 1 0.0 1.0 93 168
- 0.5656 0 1 tcp 1040 ------- 1 0.0 1.0 96 174
+ 0.569173 0 1 tcp 1040 ------- 1 0.0 1.0 112 206
r 0.570053 0 1 tcp 1040 ------- 1 0.0 1.0 94 170
- 0.571147 0 1 tcp 1040 ------- 1 0.0 1.0 97 176
+ 0.57472 0 1 tcp 1040 ------- 1 0.0 1.0 113 208
r 0.5756 0 1 tcp 1040 ------- 1 0.0 1.0 95 172
- 0.576693 0 1 tcp 1040 ------- 1 0.0 1.0 98 178
+ 0.580267 0 1 tcp 1040 ------- 1 0.0 1.0 114 210
r 0.581147 0 1 tcp 1040 ------- 1 0.0 1.0 96 174
- 0.58224 0 1 tcp 1040 ------- 1 0.0 1.0 99 180
+ 0.585813 0 1 tcp 1040 ------- 1 0.0 1.0 115 212
r 0.586693 0 1 tcp 1040 ------- 1 0.0 1.0 97 176
- 0.587787 0 1 tcp 1040 ------- 1 0.0 1.0 100 182
+ 0.59136 0 1 tcp 1040 ------- 1 0.0 1.0 116 214
r 0.59224 0 1 tcp 1040 ------- 1 0.0 1.0 98 178
- 0.593333 0 1 tcp 1040 ------- 1 0.0 1.0 101 184
+ 0.596907 0 1 tcp 1040 ------- 1 0.0 1.0 117 216
r 0.597787 0 1 tcp 1040 ------- 1 0.0 1.0 99 180
- 0.59888 0 1 tcp 1040 ------- 1 0.0 1.0 102 186
+ 0.602453 0 1 tcp 1040 ------- 1 0.0 1.0 118 218
r 0.603333 0 1 tcp 1040 ------- 1 0.0 1.0 100 182
- 0.604427 0 1 tcp 1040 ------- 1 0.0 1.0 103 188
+ 0.608 0 1 tcp 1040 ------- 1 0.0 1.0 119 220
r 0.60888 0 1 tcp 1040 ------- 1 0.0 1.0 101 184
- 0.609973 0 1 tcp 1040 ------- 1 0.0 1.0 104 190
+ 0.613547 0 1 tcp 1040 ------- 1 0.0 1.0 120 222
r 0.614427 0 1 tcp 1040 ------- 1 0.0 1.0 102 186
- 0.61552 0 1 tcp 1040 ------- 1 0.0 1.0 105 192
+ 0.619093 0 1 tcp 1040 ------- 1 0.0 1.0 121 224
r 0.619973 0 1 tcp 1040 ------- 1 0.0 1.0 103 188
- 0.621067 0 1 tcp 1040 ------- 1 0.0 1.0 106 194
+ 0.62464 0 1 tcp 1040 ------- 1 0.0 1.0 122 226
r 0.62552 0 1 tcp 1040 ------- 1 0.0 1.0 104 190
- 0.626613 0 1 tcp 1040 ------- 1 0.0 1.0 107 196
+ 0.630187 0 1 tcp 1040 ------- 1 0.0 1.0 123 228
r 0.631067 0 1 tcp 1040 ------- 1 0.0 1.0 105 192
- 0.63216 0 1 tcp 1040 ------- 1 0.0 1.0 108 198
+ 0.635733 0 1 tcp 1040 ------- 1 0.0 1.0 124 230
r 0.636613 0 1 tcp 1040 ------- 1 0.0 1.0 106 194
- 0.637707 0 1 tcp 1040 ------- 1 0.0 1.0 109 200
+ 0.64128 0 1 tcp 1040 ------- 1 0.0 1.0 125 232
r 0.64216 0 1 tcp 1040 ------- 1 0.0 1.0 107 196
- 0.643253 0 1 tcp 1040 ------- 1 0.0 1.0 110 202
+ 0.646827 0 1 tcp 1040 ------- 1 0.0 1.0 126 234
r 0.647707 0 1 tcp 1040 ------- 1 0.0 1.0 108 198
- 0.6488 0 1 tcp 1040 ------- 1 0.0 1.0 111 204
+ 0.652373 0 1 tcp 1040 ------- 1 0.0 1.0 127 236
r 0.653253 0 1 tcp 1040 ------- 1 0.0 1.0 109 200
- 0.654347 0 1 tcp 1040 ------- 1 0.0 1.0 112 206
+ 0.65792 0 1 tcp 1040 ------- 1 0.0 1.0 128 238
r 0.6588 0 1 tcp 1040 ------- 1 0.0 1.0 110 202
- 0.659893 0 1 tcp 1040 ------- 1 0.0 1.0 113 208
+ 0.663467 0 1 tcp 1040 ------- 1 0.0 1.0 129 240
r 0.664347 0 1 tcp 1040 ------- 1 0.0 1.0 111 204
- 0.66544 0 1 tcp 1040 ------- 1 0.0 1.0 114 210
+ 0.669013 0 1 tcp 1040 ------- 1 0.0 1.0 130 242
r 0.669893 0 1 tcp 1040 ------- 1 0.0 1.0 112 206
- 0.670987 0 1 tcp 1040 ------- 1 0.0 1.0 115 212
+ 0.67456 0 1 tcp 1040 ------- 1 0.0 1.0 131 244
r 0.67544 0 1 tcp 1040 ------- 1 0.0 1.0 113 208
- 0.676533 0 1 tcp 1040 ------- 1 0.0 1.0 116 214
+ 0.680107 0 1 tcp 1040 ------- 1 0.0 1.0 132 246
r 0.680987 0 1 tcp 1040 ------- 1 0.0 1.0 114 210
- 0.68208 0 1 tcp 1040 ------- 1 0.0 1.0 117 216
+ 0.685653 0 1 tcp 1040 ------- 1 0.0 1.0 133 248
r 0.686533 0 1 tcp 1040 ------- 1 0.0 1.0 115 212
- 0.687627 0 1 tcp 1040 ------- 1 0.0 1.0 118 218
+ 0.6912 0 1 tcp 1040 ------- 1 0.0 1.0 134 250
r 0.69208 0 1 tcp 1040 ------- 1 0.0 1.0 116 214
- 0.693173 0 1 tcp 1040 ------- 1 0.0 1.0 119 220
+ 0.696747 0 1 tcp 1040 ------- 1 0.0 1.0 135 252
r 0.697627 0 1 tcp 1040 ------- 1 0.0 1.0 117 216
- 0.69872 0 1 tcp 1040 ------- 1 0.0 1.0 120 222
+ 0.702293 0 1 tcp 1040 ------- 1 0.0 1.0 136 254
r 0.703173 0 1 tcp 1040 ------- 1 0.0 1.0 118 218
- 0.704267 0 1 tcp 1040 ------- 1 0.0 1.0 121 224
+ 0.70784 0 1 tcp 1040 ------- 1 0.0 1.0 137 256
r 0.70872 0 1 tcp 1040 ------- 1 0.0 1.0 119 220
- 0.709813 0 1 tcp 1040 ------- 1 0.0 1.0 122 226
+ 0.713387 0 1 tcp 1040 ------- 1 0.0 1.0 138 258
r 0.714267 0 1 tcp 1040 ------- 1 0.0 1.0 120 222
- 0.71536 0 1 tcp 1040 ------- 1 0.0 1.0 123 228
+ 0.718933 0 1 tcp 1040 ------- 1 0.0 1.0 139 260
r 0.719813 0 1 tcp 1040 ------- 1 0.0 1.0 121 224
- 0.720907 0 1 tcp 1040 ------- 1 0.0 1.0 124 230
+ 0.72448 0 1 tcp 1040 ------- 1 0.0 1.0 140 262
r 0.72536 0 1 tcp 1040 ------- 1 0.0 1.0 122 226
- 0.726453 0 1 tcp 1040 ------- 1 0.0 1.0 125 232
+ 0.730027 0 1 tcp 1040 ------- 1 0.0 1.0 141 264
r 0.730907 0 1 tcp 1040 ------- 1 0.0 1.0 123 228
- 0.732 0 1 tcp 1040 ------- 1 0.0 1.0 126 234
+ 0.735573 0 1 tcp 1040 ------- 1 0.0 1.0 142 266
r 0.736453 0 1 tcp 1040 ------- 1 0.0 1.0 124 230
- 0.737547 0 1 tcp 1040 ------- 1 0.0 1.0 127 236
+ 0.74112 0 1 tcp 1040 ------- 1 0.0 1.0 143 268
r 0.742 0 1 tcp 1040 ------- 1 0.0 1.0 125 232
- 0.743093 0 1 tcp 1040 ------- 1 0.0 1.0 128 238
+ 0.746667 0 1 tcp 1040 ------- 1 0.0 1.0 144 270
r 0.747547 0 1 tcp 1040 ------- 1 0.0 1.0 126 234
- 0.74864 0 1 tcp 1040 ------- 1 0.0 1.0 129 240
+ 0.752213 0 1 tcp 1040 ------- 1 0.0 1.0 145 272
r 0.753093 0 1 tcp 1040 ------- 1 0.0 1.0 127 236
- 0.754187 0 1 tcp 1040 ------- 1 0.0 1.0 130 242
+ 0.75776 0 1 tcp 1040 ------- 1 0.0 1.0 146 274
r 0.75864 0 1 tcp 1040 ------- 1 0.0 1.0 128 238
- 0.759733 0 1 tcp 1040 ------- 1 0.0 1.0 131 244
+ 0.763307 0 1 tcp 1040 ------- 1 0.0 1.0 147 276
r 0.764187 0 1 tcp 1040 ------- 1 0.0 1.0 129 240
- 0.76528 0 1 tcp 1040 ------- 1 0.0 1.0 132 246
+ 0.768853 0 1 tcp 1040 ------- 1 0.0 1.0 148 278
r 0.769733 0 1 tcp 1040 ------- 1 0.0 1.0 130 242
- 0.770827 0 1 tcp 1040 ------- 1 0.0 1.0 133 248
+ 0.7744 0 1 tcp 1040 ------- 1 0.0 1.0 149 280
r 0.77528 0 1 tcp 1040 ------- 1 0.0 1.0 131 244
- 0.776373 0 1 tcp 1040 ------- 1 0.0 1.0 134 250
+ 0.779947 0 1 tcp 1040 ------- 1 0.0 1.0 150 282
r 0.780827 0 1 tcp 1040 ------- 1 0.0 1.0 132 246
- 0.78192 0 1 tcp 1040 ------- 1 0.0 1.0 135 252
+ 0.785493 0 1 tcp 1040 ------- 1 0.0 1.0 151 284
r 0.786373 0 1 tcp 1040 ------- 1 0.0 1.0 133 248
- 0.787467 0 1 tcp 1040 ------- 1 0.0 1.0 136 254
+ 0.79104 0 1 tcp 1040 ------- 1 0.0 1.0 152 286
r 0.79192 0 1 tcp 1040 ------- 1 0.0 1.0 134 250
- 0.793013 0 1 tcp 1040 ------- 1 0.0 1.0 137 256
+ 0.796587 0 1 tcp 1040 ------- 1 0.0 1.0 153 288
r 0.797467 0 1 tcp 1040 ------- 1 0.0 1.0 135 252
- 0.79856 0 1 tcp 1040 ------- 1 0.0 1.0 138 258
+ 0.802133 0 1 tcp 1040 ------- 1 0.0 1.0 154 290
r 0.803013 0 1 tcp 1040 ------- 1 0.0 1.0 136 254
- 0.804107 0 1 tcp 1040 ------- 1 0.0 1.0 139 260
+ 0.80768 0 1 tcp 1040 ------- 1 0.0 1.0 155 292
r 0.80856 0 1 tcp 1040 ------- 1 0.0 1.0 137 256
- 0.809653 0 1 tcp 1040 ------- 1 0.0 1.0 140 262
+ 0.813227 0 1 tcp 1040 ------- 1 0.0 1.0 156 294
r 0.814107 0 1 tcp 1040 ------- 1 0.0 1.0 138 258
- 0.8152 0 1 tcp 1040 ------- 1 0.0 1.0 141 264
+ 0.818773 0 1 tcp 1040 ------- 1 0.0 1.0 157 296
r 0.819653 0 1 tcp 1040 ------- 1 0.0 1.0 139 260
- 0.820747 0 1 tcp 1040 ------- 1 0.0 1.0 142 266
+ 0.82432 0 1 tcp 1040 ------- 1 0.0 1.0 158 298
r 0.8252 0 1 tcp 1040 ------- 1 0.0 1.0 140 262
- 0.826293 0 1 tcp 1040 ------- 1 0.0 1.0 143 268
+ 0.829867 0 1 tcp 1040 ------- 1 0.0 1.0 159 300
r 0.830747 0 1 tcp 1040 ------- 1 0.0 1.0 141 264
- 0.83184 0 1 tcp 1040 ------- 1 0.0 1.0 144 270
+ 0.835413 0 1 tcp 1040 ------- 1 0.0 1.0 160 302
r 0.836293 0 1 tcp 1040 ------- 1 0.0 1.0 142 266
- 0.837387 0 1 tcp 1040 ------- 1 0.0 1.0 145 272
+ 0.84096 0 1 tcp 1040 ------- 1 0.0 1.0 161 304
r 0.84184 0 1 tcp 1040 ------- 1 0.0 1.0 143 268
- 0.842933 0 1 tcp 1040 ------- 1 0.0 1.0 146 274
+ 0.846507 0 1 tcp 1040 ------- 1 0.0 1.0 162 306
r 0.847387 0 1 tcp 1040 ------- 1 0.0 1.0 144 270
- 0.84848 0 1 tcp 1040 ------- 1 0.0 1.0 147 276
+ 0.852053 0 1 tcp 1040 ------- 1 0.0 1.0 163 308
r 0.852933 0 1 tcp 1040 ------- 1 0.0 1.0 145 272
- 0.854027 0 1 tcp 1040 ------- 1 0.0 1.0 148 278
+ 0.8576 0 1 tcp 1040 ------- 1 0.0 1.0 164 310
r 0.85848 0 1 tcp 1040 ------- 1 0.0 1.0 146 274
- 0.859573 0 1 tcp 1040 ------- 1 0.0 1.0 149 280
+ 0.863147 0 1 tcp 1040 ------- 1 0.0 1.0 165 312
r 0.864027 0 1 tcp 1040 ------- 1 0.0 1.0 147 276
- 0.86512 0 1 tcp 1040 ------- 1 0.0 1.0 150 282
+ 0.868693 0 1 tcp 1040 ------- 1 0.0 1.0 166 314
r 0.869573 0 1 tcp 1040 ------- 1 0.0 1.0 148 278
- 0.870667 0 1 tcp 1040 ------- 1 0.0 1.0 151 284
+ 0.87424 0 1 tcp 1040 ------- 1 0.0 1.0 167 316
r 0.87512 0 1 tcp 1040 ------- 1 0.0 1.0 149 280
- 0.876213 0 1 tcp 1040 ------- 1 0.0 1.0 152 286
+ 0.879787 0 1 tcp 1040 ------- 1 0.0 1.0 168 318
r 0.880667 0 1 tcp 1040 ------- 1 0.0 1.0 150 282
- 0.88176 0 1 tcp 1040 ------- 1 0.0 1.0 153 288
+ 0.885333 0 1 tcp 1040 ------- 1 0.0 1.0 169 320
r 0.886213 0 1 tcp 1040 ------- 1 0.0 1.0 151 284
- 0.887307 0 1 tcp 1040 ------- 1 0.0 1.0 154 290
+ 0.89088 0 1 tcp 1040 ------- 1 0.0 1.0 170 322
r 0.89176 0 1 tcp 1040 ------- 1 0.0 1.0 152 286
- 0.892853 0 1 tcp 1040 ------- 1 0.0 1.0 155 292
+ 0.896427 0 1 tcp 1040 ------- 1 0.0 1.0 171 324
r 0.897307 0 1 tcp 1040 ------- 1 0.0 1.0 153 288
- 0.8984 0 1 tcp 1040 ------- 1 0.0 1.0 156 294
+ 0.901973 0 1 tcp 1040 ------- 1 0.0 1.0 172 326
r 0.902853 0 1 tcp 1040 ------- 1 0.0 1.0 154 290
- 0.903947 0 1 tcp 1040 ------- 1 0.0 1.0 157 296
+ 0.90752 0 1 tcp 1040 ------- 1 0.0 1.0 173 328
r 0.9084 0 1 tcp 1040 ------- 1 0.0 1.0 155 292
- 0.909493 0 1 tcp 1040 ------- 1 0.0 1.0 158 298
+ 0.913067 0 1 tcp 1040 ------- 1 0.0 1.0 174 330
r 0.913947 0 1 tcp 1040 ------- 1 0.0 1.0 156 294
- 0.91504 0 1 tcp 1040 ------- 1 0.0 1.0 159 300
+ 0.918613 0 1 tcp 1040 ------- 1 0.0 1.0 175 332
r 0.919493 0 1 tcp 1040 ------- 1 0.0 1.0 157 296
- 0.920587 0 1 tcp 1040 ------- 1 0.0 1.0 160 302
+ 0.92416 0 1 tcp 1040 ------- 1 0.0 1.0 176 334
r 0.92504 0 1 tcp 1040 ------- 1 0.0 1.0 158 298
- 0.926133 0 1 tcp 1040 ------- 1 0.0 1.0 161 304
+ 0.929707 0 1 tcp 1040 ------- 1 0.0 1.0 177 336
r 0.930587 0 1 tcp 1040 ------- 1 0.0 1.0 159 300
- 0.93168 0 1 tcp 1040 ------- 1 0.0 1.0 162 306
+ 0.935253 0 1 tcp 1040 ------- 1 0.0 1.0 178 338
r 0.936133 0 1 tcp 1040 ------- 1 0.0 1.0 160 302
- 0.937227 0 1 tcp 1040 ------- 1 0.0 1.0 163 308
+ 0.9408 0 1 tcp 1040 ------- 1 0.0 1.0 179 340
r 0.94168 0 1 tcp 1040 ------- 1 0.0 1.0 161 304
- 0.942773 0 1 tcp 1040 ------- 1 0.0 1.0 164 310
+ 0.946347 0 1 tcp 1040 ------- 1 0.0 1.0 180 342
r 0.947227 0 1 tcp 1040 ------- 1 0.0 1.0 162 306
- 0.94832 0 1 tcp 1040 ------- 1 0.0 1.0 165 312
+ 0.951893 0 1 tcp 1040 ------- 1 0.0 1.0 181 344
r 0.952773 0 1 tcp 1040 ------- 1 0.0 1.0 163 308
- 0.953867 0 1 tcp 1040 ------- 1 0.0 1.0 166 314
+ 0.95744 0 1 tcp 1040 ------- 1 0.0 1.0 182 346
r 0.95832 0 1 tcp 1040 ------- 1 0.0 1.0 164 310
- 0.959413 0 1 tcp 1040 ------- 1 0.0 1.0 167 316
+ 0.962987 0 1 tcp 1040 ------- 1 0.0 1.0 183 348
r 0.963867 0 1 tcp 1040 ------- 1 0.0 1.0 165 312
- 0.96496 0 1 tcp 1040 ------- 1 0.0 1.0 168 318
+ 0.968533 0 1 tcp 1040 ------- 1 0.0 1.0 184 350
r 0.969413 0 1 tcp 1040 ------- 1 0.0 1.0 166 314
- 0.970507 0 1 tcp 1040 ------- 1 0.0 1.0 169 320
+ 0.97408 0 1 tcp 1040 ------- 1 0.0 1.0 185 352
r 0.97496 0 1 tcp 1040 ------- 1 0.0 1.0 167 316
- 0.976053 0 1 tcp 1040 ------- 1 0.0 1.0 170 322
+ 0.979627 0 1 tcp 1040 ------- 1 0.0 1.0 186 354
r 0.980507 0 1 tcp 1040 ------- 1 0.0 1.0 168 318
- 0.9816 0 1 tcp 1040 ------- 1 0.0 1.0 171 324
+ 0.985173 0 1 tcp 1040 ------- 1 0.0 1.0 187 356
r 0.986053 0 1 tcp 1040 ------- 1 0.0 1.0 169 320
- 0.987147 0 1 tcp 1040 ------- 1 0.0 1.0 172 326
+ 0.99072 0 1 tcp 1040 ------- 1 0.0 1.0 188 358
r 0.9916 0 1 tcp 1040 ------- 1 0.0 1.0 170 322
- 0.992693 0 1 tcp 1040 ------- 1 0.0 1.0 173 328
+ 0.996267 0 1 tcp 1040 ------- 1 0.0 1.0 189 360
r 0.997147 0 1 tcp 1040 ------- 1 0.0 1.0 171 324
- 0.99824 0 1 tcp 1040 ------- 1 0.0 1.0 174 330
+ 1.001813 0 1 tcp 1040 ------- 1 0.0 1.0 190 363
r 1.002693 0 1 tcp 1040 ------- 1 0.0 1.0 172 326
- 1.003787 0 1 tcp 1040 ------- 1 0.0 1.0 175 332
+ 1.00736 0 1 tcp 1040 ------- 1 0.0 1.0 191 365
r 1.00824 0 1 tcp 1040 ------- 1 0.0 1.0 173 328
- 1.009333 0 1 tcp 1040 ------- 1 0.0 1.0 176 334
+ 1.010213 0 1 ack 40 ------- 2 0.1 1.1 0 367
+ 1.012907 0 1 tcp 1040 ------- 1 0.0 1.0 192 368
r 1.013787 0 1 tcp 1040 ------- 1 0.0 1.0 174 330
- 1.01488 0 1 tcp 1040 ------- 1 0.0 1.0 177 336
+ 1.018453 0 1 tcp 1040 ------- 1 0.0 1.0 193 370
r 1.019333 0 1 tcp 1040 ------- 1 0.0 1.0 175 332
- 1.020427 0 1 tcp 1040 ------- 1 0.0 1.0 178 338
+ 1.024 0 1 tcp 1040 ------- 1 0.0 1.0 194 372
r 1.02488 0 1 tcp 1040 ------- 1 0.0 1.0 176 334
- 1.025973 0 1 tcp 1040 ------- 1 0.0 1.0 179 340
+ 1.029547 0 1 tcp 1040 ------- 1 0.0 1.0 195 374
r 1.030427 0 1 tcp 1040 ------- 1 0.0 1.0 177 336
- 1.03152 0 1 tcp 1040 ------- 1 0.0 1.0 180 342
+ 1.035093 0 1 tcp 1040 ------- 1 0.0 1.0 196 376
r 1.035973 0 1 tcp 1040 ------- 1 0.0 1.0 178 338
- 1.037067 0 1 tcp 1040 ------- 1 0.0 1.0 181 344
+ 1.04064 0 1 tcp 1040 ------- 1 0.0 1.0 197 378
r 1.04152 0 1 tcp 1040 ------- 1 0.0 1.0 179 340
- 1.042613 0 1 tcp 1040 ------- 1 0.0 1.0 182 346
+ 1.046187 0 1 tcp 1040 ------- 1 0.0 1.0 198 380
r 1.047067 0 1 tcp 1040 ------- 1 0.0 1.0 180 342
- 1.04816 0 1 tcp 1040 ------- 1 0.0 1.0 183 348
+ 1.051733 0 1 tcp 1040 ------- 1 0.0 1.0 199 382
r 1.052613 0 1 tcp 1040 ------- 1 0.0 1.0 181 344
- 1.053707 0 1 tcp 1040 ------- 1 0.0 1.0 184 350
+ 1.05728 0 1 tcp 1040 ------- 1 0.0 1.0 200 384
r 1.05816 0 1 tcp 1040 ------- 1 0.0 1.0 182 346
- 1.059253 0 1 tcp 1040 ------- 1 0.0 1.0 185 352
+ 1.062827 0 1 tcp 1040 ------- 1 0.0 1.0 201 386
r 1.063707 0 1 tcp 1040 ------- 1 0.0 1.0 183 348
- 1.0648 0 1 tcp 1040 ------- 1 0.0 1.0 186 354
+ 1.068373 0 1 tcp 1040 ------- 1 0.0 1.0 202 388
r 1.069253 0 1 tcp 1040 ------- 1 0.0 1.0 184 350
- 1.070347 0 1 tcp 1040 ------- 1 0.0 1.0 187 356
+ 1.07392 0 1 tcp 1040 ------- 1 0.0 1.0 203 390
r 1.0748 0 1 tcp 1040 ------- 1 0.0 1.0 185 352
- 1.075893 0 1 tcp 1040 ------- 1 0.0 1.0 188 358
+ 1.079467 0 1 tcp 1040 ------- 1 0.0 1.0 204 392
r 1.080347 0 1 tcp 1040 ------- 1 0.0 1.0 186 354
- 1.08144 0 1 tcp 1040 ------- 1 0.0 1.0 189 360
+ 1.085013 0 1 tcp 1040 ------- 1 0.0 1.0 205 394
r 1.085893 0 1 tcp 1040 ------- 1 0.0 1.0 187 356
- 1.086987 0 1 tcp 1040 ------- 1 0.0 1.0 190 363
+ 1.09056 0 1 tcp 1040 ------- 1 0.0 1.0 206 396
r 1.09144 0 1 tcp 1040 ------- 1 0.0 1.0 188 358
- 1.092533 0 1 tcp 1040 ------- 1 0.0 1.0 191 365
+ 1.096107 0 1 tcp 1040 ------- 1 0.0 1.0 207 398
r 1.096987 0 1 tcp 1040 ------- 1 0.0 1.0 189 360
- 1.09808 0 1 ack 40 ------- 2 0.1 1.1 0 367
- 1.098293 0 1 tcp 1040 ------- 1 0.0 1.0 192 368
+ 1.101653 0 1 tcp 1040 ------- 1 0.0 1.0 208 400
r 1.102533 0 1 tcp 1040 ------- 1 0.0 1.0 190 363
- 1.10384 0 1 tcp 1040 ------- 1 0.0 1.0 193 370
+ 1.1072 0 1 tcp 1040 ------- 1 0.0 1.0 209 402
r 1.10808 0 1 tcp 1040 ------- 1 0.0 1.0 191 365
r 1.108293 0 1 ack 40 ------- 2 0.1 1.1 0 367
- 1.109387 0 1 tcp 1040 ------- 1 0.0 1.0 194 372
+ 1.112747 0 1 tcp 1040 ------- 1 0.0 1.0 210 406
r 1.11384 0 1 tcp 1040 ------- 1 0.0 1.0 192 368
- 1.114933 0 1 tcp 1040 ------- 1 0.0 1.0 195 374
+ 1.118293 0 1 tcp 1040 ------- 1 0.0 1.0 211 408
r 1.119387 0 1 tcp 1040 ------- 1 0.0 1.0 193 370
- 1.12048 0 1 tcp 1040 ------- 1 0.0 1.0 196 376
+ 1.12384 0 1 ack 40 ------- 2 0.1 1.1 1 410
r 1.124933 0 1 tcp 1040 ------- 1 0.0 1.0 194 372
- 1.126027 0 1 tcp 1040 ------- 1 0.0 1.0 197 378
+ 1.129387 0 1 ack 40 ------- 2 0.1 1.1 2 412
+ 1.1296 0 1 tcp 1040 ------- 1 0.0 1.0 212 413
+ 1.129813 0 1 tcp 1040 ------- 1 0.0 1.0 213 414
r 1.13048 0 1 tcp 1040 ------- 1 0.0 1.0 195 374
- 1.131573 0 1 tcp 1040 ------- 1 0.0 1.0 198 380
+ 1.135147 0 1 tcp 1040 ------- 1 0.0 1.0 214 416
r 1.136027 0 1 tcp 1040 ------- 1 0.0 1.0 196 376