+ 0.2 0 416 tcp 40 ------- 0 0.0 415.0 0 0
- 0.2 0 416 tcp 40 ------- 0 0.0 415.0 0 0
+ 0.2 1 416 tcp 40 ------- 0 1.0 415.1 0 1
- 0.2 1 416 tcp 40 ------- 0 1.0 415.1 0 1
+ 0.2 2 416 tcp 40 ------- 0 2.0 415.2 0 2
- 0.2 2 416 tcp 40 ------- 0 2.0 415.2 0 2
+ 0.2 3 416 tcp 40 ------- 0 3.0 415.3 0 3
- 0.2 3 416 tcp 40 ------- 0 3.0 415.3 0 3
+ 0.2 4 416 tcp 40 ------- 0 4.0 415.4 0 4
- 0.2 4 416 tcp 40 ------- 0 4.0 415.4 0 4
+ 0.2 5 416 tcp 40 ------- 0 5.0 415.5 0 5
- 0.2 5 416 tcp 40 ------- 0 5.0 415.5 0 5
+ 0.2 6 416 tcp 40 ------- 0 6.0 415.6 0 6
- 0.2 6 416 tcp 40 ------- 0 6.0 415.6 0 6
+ 0.2 7 416 tcp 40 ------- 0 7.0 415.7 0 7
- 0.2 7 416 tcp 40 ------- 0 7.0 415.7 0 7
+ 0.2 8 416 tcp 40 ------- 0 8.0 415.8 0 8
- 0.2 8 416 tcp 40 ------- 0 8.0 415.8 0 8
+ 0.2 9 416 tcp 40 ------- 0 9.0 415.9 0 9
- 0.2 9 416 tcp 40 ------- 0 9.0 415.9 0 9
+ 0.2 10 416 tcp 40 ------- 0 10.0 415.10 0 10
- 0.2 10 416 tcp 40 ------- 0 10.0 415.10 0 10
+ 0.2 11 416 tcp 40 ------- 0 11.0 415.11 0 11
- 0.2 11 416 tcp 40 ------- 0 11.0 415.11 0 11
+ 0.2 12 416 tcp 40 ------- 0 12.0 415.12 0 12
- 0.2 12 416 tcp 40 ------- 0 12.0 415.12 0 12
+ 0.2 13 416 tcp 40 ------- 0 13.0 415.13 0 13
- 0.2 13 416 tcp 40 ------- 0 13.0 415.13 0 13
+ 0.2 14 416 tcp 40 ------- 0 14.0 415.14 0 14
- 0.2 14 416 tcp 40 ------- 0 14.0 415.14 0 14
r 0.200002 0 416 tcp 40 ------- 0 0.0 415.0 0 0
+ 0.200002 416 415 tcp 40 ------- 0 0.0 415.0 0 0
- 0.200002 416 415 tcp 40 ------- 0 0.0 415.0 0 0
r 0.200002 1 416 tcp 40 ------- 0 1.0 415.1 0 1
+ 0.200002 416 415 tcp 40 ------- 0 1.0 415.1 0 1
r 0.200002 2 416 tcp 40 ------- 0 2.0 415.2 0 2
+ 0.200002 416 415 tcp 40 ------- 0 2.0 415.2 0 2
r 0.200002 3 416 tcp 40 ------- 0 3.0 415.3 0 3
+ 0.200002 416 415 tcp 40 ------- 0 3.0 415.3 0 3
r 0.200002 4 416 tcp 40 ------- 0 4.0 415.4 0 4
+ 0.200002 416 415 tcp 40 ------- 0 4.0 415.4 0 4
r 0.200002 5 416 tcp 40 ------- 0 5.0 415.5 0 5
+ 0.200002 416 415 tcp 40 ------- 0 5.0 415.5 0 5
r 0.200002 6 416 tcp 40 ------- 0 6.0 415.6 0 6
+ 0.200002 416 415 tcp 40 ------- 0 6.0 415.6 0 6
r 0.200002 7 416 tcp 40 ------- 0 7.0 415.7 0 7
+ 0.200002 416 415 tcp 40 ------- 0 7.0 415.7 0 7
r 0.200002 8 416 tcp 40 ------- 0 8.0 415.8 0 8
+ 0.200002 416 415 tcp 40 ------- 0 8.0 415.8 0 8
r 0.200002 9 416 tcp 40 ------- 0 9.0 415.9 0 9
+ 0.200002 416 415 tcp 40 ------- 0 9.0 415.9 0 9
r 0.200002 10 416 tcp 40 ------- 0 10.0 415.10 0 10
+ 0.200002 416 415 tcp 40 ------- 0 10.0 415.10 0 10
r 0.200002 11 416 tcp 40 ------- 0 11.0 415.11 0 11
+ 0.200002 416 415 tcp 40 ------- 0 11.0 415.11 0 11
r 0.200002 12 416 tcp 40 ------- 0 12.0 415.12 0 12
+ 0.200002 416 415 tcp 40 ------- 0 12.0 415.12 0 12
r 0.200002 13 416 tcp 40 ------- 0 13.0 415.13 0 13
+ 0.200002 416 415 tcp 40 ------- 0 13.0 415.13 0 13
r 0.200002 14 416 tcp 40 ------- 0 14.0 415.14 0 14
+ 0.200002 416 415 tcp 40 ------- 0 14.0 415.14 0 14
- 0.200002 416 415 tcp 40 ------- 0 1.0 415.1 0 1
- 0.200002 416 415 tcp 40 ------- 0 2.0 415.2 0 2
- 0.200002 416 415 tcp 40 ------- 0 3.0 415.3 0 3
- 0.200002 416 415 tcp 40 ------- 0 4.0 415.4 0 4
- 0.200002 416 415 tcp 40 ------- 0 5.0 415.5 0 5
- 0.200002 416 415 tcp 40 ------- 0 6.0 415.6 0 6
- 0.200002 416 415 tcp 40 ------- 0 7.0 415.7 0 7
- 0.200002 416 415 tcp 40 ------- 0 8.0 415.8 0 8
- 0.200002 416 415 tcp 40 ------- 0 9.0 415.9 0 9
- 0.200002 416 415 tcp 40 ------- 0 10.0 415.10 0 10
- 0.200002 416 415 tcp 40 ------- 0 11.0 415.11 0 11
- 0.200002 416 415 tcp 40 ------- 0 12.0 415.12 0 12
- 0.200002 416 415 tcp 40 ------- 0 13.0 415.13 0 13
- 0.200002 416 415 tcp 40 ------- 0 14.0 415.14 0 14
r 0.200004 416 415 tcp 40 ------- 0 0.0 415.0 0 0
+ 0.200004 415 416 ack 40 ------- 0 415.0 0.0 0 15
- 0.200004 415 416 ack 40 ------- 0 415.0 0.0 0 15
r 0.200004 416 415 tcp 40 ------- 0 1.0 415.1 0 1
+ 0.200004 415 416 ack 40 ------- 0 415.1 1.0 0 16
- 0.200004 415 416 ack 40 ------- 0 415.1 1.0 0 16
r 0.200004 416 415 tcp 40 ------- 0 2.0 415.2 0 2
+ 0.200004 415 416 ack 40 ------- 0 415.2 2.0 0 17
- 0.200004 415 416 ack 40 ------- 0 415.2 2.0 0 17
r 0.200004 416 415 tcp 40 ------- 0 3.0 415.3 0 3
+ 0.200004 415 416 ack 40 ------- 0 415.3 3.0 0 18
- 0.200004 415 416 ack 40 ------- 0 415.3 3.0 0 18
r 0.200004 416 415 tcp 40 ------- 0 4.0 415.4 0 4
+ 0.200004 415 416 ack 40 ------- 0 415.4 4.0 0 19
- 0.200004 415 416 ack 40 ------- 0 415.4 4.0 0 19
r 0.200004 416 415 tcp 40 ------- 0 5.0 415.5 0 5
+ 0.200004 415 416 ack 40 ------- 0 415.5 5.0 0 20
- 0.200004 415 416 ack 40 ------- 0 415.5 5.0 0 20
r 0.200004 416 415 tcp 40 ------- 0 6.0 415.6 0 6
+ 0.200004 415 416 ack 40 ------- 0 415.6 6.0 0 21
- 0.200004 415 416 ack 40 ------- 0 415.6 6.0 0 21
r 0.200004 416 415 tcp 40 ------- 0 7.0 415.7 0 7
+ 0.200004 415 416 ack 40 ------- 0 415.7 7.0 0 22
- 0.200004 415 416 ack 40 ------- 0 415.7 7.0 0 22
r 0.200004 416 415 tcp 40 ------- 0 8.0 415.8 0 8
+ 0.200004 415 416 ack 40 ------- 0 415.8 8.0 0 23
- 0.200004 415 416 ack 40 ------- 0 415.8 8.0 0 23
r 0.200004 416 415 tcp 40 ------- 0 9.0 415.9 0 9
+ 0.200004 415 416 ack 40 ------- 0 415.9 9.0 0 24
- 0.200004 415 416 ack 40 ------- 0 415.9 9.0 0 24
r 0.200004 416 415 tcp 40 ------- 0 10.0 415.10 0 10
+ 0.200004 415 416 ack 40 ------- 0 415.10 10.0 0 25
- 0.200004 415 416 ack 40 ------- 0 415.10 10.0 0 25
r 0.200004 416 415 tcp 40 ------- 0 11.0 415.11 0 11
+ 0.200004 415 416 ack 40 ------- 0 415.11 11.0 0 26
- 0.200004 415 416 ack 40 ------- 0 415.11 11.0 0 26
r 0.200004 416 415 tcp 40 ------- 0 12.0 415.12 0 12
+ 0.200004 415 416 ack 40 ------- 0 415.12 12.0 0 27
- 0.200004 415 416 ack 40 ------- 0 415.12 12.0 0 27
r 0.200004 416 415 tcp 40 ------- 0 13.0 415.13 0 13
+ 0.200004 415 416 ack 40 ------- 0 415.13 13.0 0 28
- 0.200004 415 416 ack 40 ------- 0 415.13 13.0 0 28
r 0.200004 416 415 tcp 40 ------- 0 14.0 415.14 0 14
+ 0.200004 415 416 ack 40 ------- 0 415.14 14.0 0 29
- 0.200004 415 416 ack 40 ------- 0 415.14 14.0 0 29
r 0.200006 415 416 ack 40 ------- 0 415.0 0.0 0 15
+ 0.200006 416 0 ack 40 ------- 0 415.0 0.0 0 15
- 0.200006 416 0 ack 40 ------- 0 415.0 0.0 0 15
r 0.200006 415 416 ack 40 ------- 0 415.1 1.0 0 16
+ 0.200006 416 1 ack 40 ------- 0 415.1 1.0 0 16
- 0.200006 416 1 ack 40 ------- 0 415.1 1.0 0 16
r 0.200006 415 416 ack 40 ------- 0 415.2 2.0 0 17
+ 0.200006 416 2 ack 40 ------- 0 415.2 2.0 0 17
- 0.200006 416 2 ack 40 ------- 0 415.2 2.0 0 17
r 0.200006 415 416 ack 40 ------- 0 415.3 3.0 0 18
+ 0.200006 416 3 ack 40 ------- 0 415.3 3.0 0 18
- 0.200006 416 3 ack 40 ------- 0 415.3 3.0 0 18
r 0.200006 415 416 ack 40 ------- 0 415.4 4.0 0 19
+ 0.200006 416 4 ack 40 ------- 0 415.4 4.0 0 19
- 0.200006 416 4 ack 40 ------- 0 415.4 4.0 0 19
r 0.200006 415 416 ack 40 ------- 0 415.5 5.0 0 20
+ 0.200006 416 5 ack 40 ------- 0 415.5 5.0 0 20
- 0.200006 416 5 ack 40 ------- 0 415.5 5.0 0 20
r 0.200006 415 416 ack 40 ------- 0 415.6 6.0 0 21
+ 0.200006 416 6 ack 40 ------- 0 415.6 6.0 0 21
- 0.200006 416 6 ack 40 ------- 0 415.6 6.0 0 21
r 0.200006 415 416 ack 40 ------- 0 415.7 7.0 0 22
+ 0.200006 416 7 ack 40 ------- 0 415.7 7.0 0 22
- 0.200006 416 7 ack 40 ------- 0 415.7 7.0 0 22
r 0.200006 415 416 ack 40 ------- 0 415.8 8.0 0 23
+ 0.200006 416 8 ack 40 ------- 0 415.8 8.0 0 23
- 0.200006 416 8 ack 40 ------- 0 415.8 8.0 0 23
r 0.200006 415 416 ack 40 ------- 0 415.9 9.0 0 24
+ 0.200006 416 9 ack 40 ------- 0 415.9 9.0 0 24
- 0.200006 416 9 ack 40 ------- 0 415.9 9.0 0 24
r 0.200006 415 416 ack 40 ------- 0 415.10 10.0 0 25
+ 0.200006 416 10 ack 40 ------- 0 415.10 10.0 0 25
- 0.200006 416 10 ack 40 ------- 0 415.10 10.0 0 25
r 0.200006 415 416 ack 40 ------- 0 415.11 11.0 0 26
+ 0.200006 416 11 ack 40 ------- 0 415.11 11.0 0 26
- 0.200006 416 11 ack 40 ------- 0 415.11 11.0 0 26
r 0.200006 415 416 ack 40 ------- 0 415.12 12.0 0 27
+ 0.200006 416 12 ack 40 ------- 0 415.12 12.0 0 27
- 0.200006 416 12 ack 40 ------- 0 415.12 12.0 0 27
r 0.200006 415 416 ack 40 ------- 0 415.13 13.0 0 28
+ 0.200006 416 13 ack 40 ------- 0 415.13 13.0 0 28
- 0.200006 416 13 ack 40 ------- 0 415.13 13.0 0 28
r 0.200006 415 416 ack 40 ------- 0 415.14 14.0 0 29
+ 0.200006 416 14 ack 40 ------- 0 415.14 14.0 0 29
- 0.200006 416 14 ack 40 ------- 0 415.14 14.0 0 29
r 0.200008 416 0 ack 40 ------- 0 415.0 0.0 0 15
+ 0.200008 0 416 tcp 1500 ------- 0 0.0 415.0 1 30
- 0.200008 0 416 tcp 1500 ------- 0 0.0 415.0 1 30
+ 0.200008 0 416 tcp 1500 ------- 0 0.0 415.0 2 31
r 0.200008 416 1 ack 40 ------- 0 415.1 1.0 0 16
+ 0.200008 1 416 tcp 1500 ------- 0 1.0 415.1 1 32
- 0.200008 1 416 tcp 1500 ------- 0 1.0 415.1 1 32
+ 0.200008 1 416 tcp 1500 ------- 0 1.0 415.1 2 33
r 0.200008 416 2 ack 40 ------- 0 415.2 2.0 0 17
+ 0.200008 2 416 tcp 1500 ------- 0 2.0 415.2 1 34
- 0.200008 2 416 tcp 1500 ------- 0 2.0 415.2 1 34
+ 0.200008 2 416 tcp 1500 ------- 0 2.0 415.2 2 35
r 0.200008 416 3 ack 40 ------- 0 415.3 3.0 0 18
+ 0.200008 3 416 tcp 1500 ------- 0 3.0 415.3 1 36
- 0.200008 3 416 tcp 1500 ------- 0 3.0 415.3 1 36
+ 0.200008 3 416 tcp 1500 ------- 0 3.0 415.3 2 37
r 0.200008 416 4 ack 40 ------- 0 415.4 4.0 0 19
+ 0.200008 4 416 tcp 1500 ------- 0 4.0 415.4 1 38
- 0.200008 4 416 tcp 1500 ------- 0 4.0 415.4 1 38
+ 0.200008 4 416 tcp 1500 ------- 0 4.0 415.4 2 39
r 0.200008 416 5 ack 40 ------- 0 415.5 5.0 0 20
+ 0.200008 5 416 tcp 1500 ------- 0 5.0 415.5 1 40
- 0.200008 5 416 tcp 1500 ------- 0 5.0 415.5 1 40
+ 0.200008 5 416 tcp 1500 ------- 0 5.0 415.5 2 41
r 0.200008 416 6 ack 40 ------- 0 415.6 6.0 0 21
+ 0.200008 6 416 tcp 1500 ------- 0 6.0 415.6 1 42
- 0.200008 6 416 tcp 1500 ------- 0 6.0 415.6 1 42
+ 0.200008 6 416 tcp 1500 ------- 0 6.0 415.6 2 43
r 0.200008 416 7 ack 40 ------- 0 415.7 7.0 0 22
+ 0.200008 7 416 tcp 1500 ------- 0 7.0 415.7 1 44
- 0.200008 7 416 tcp 1500 ------- 0 7.0 415.7 1 44
+ 0.200008 7 416 tcp 1500 ------- 0 7.0 415.7 2 45
r 0.200008 416 8 ack 40 ------- 0 415.8 8.0 0 23
+ 0.200008 8 416 tcp 1500 ------- 0 8.0 415.8 1 46
- 0.200008 8 416 tcp 1500 ------- 0 8.0 415.8 1 46
+ 0.200008 8 416 tcp 1500 ------- 0 8.0 415.8 2 47
r 0.200008 416 9 ack 40 ------- 0 415.9 9.0 0 24
+ 0.200008 9 416 tcp 1500 ------- 0 9.0 415.9 1 48
- 0.200008 9 416 tcp 1500 ------- 0 9.0 415.9 1 48
+ 0.200008 9 416 tcp 1500 ------- 0 9.0 415.9 2 49
r 0.200008 416 10 ack 40 ------- 0 415.10 10.0 0 25
+ 0.200008 10 416 tcp 1500 ------- 0 10.0 415.10 1 50
- 0.200008 10 416 tcp 1500 ------- 0 10.0 415.10 1 50
+ 0.200008 10 416 tcp 1500 ------- 0 10.0 415.10 2 51
r 0.200008 416 11 ack 40 ------- 0 415.11 11.0 0 26
+ 0.200008 11 416 tcp 1500 ------- 0 11.0 415.11 1 52
- 0.200008 11 416 tcp 1500 ------- 0 11.0 415.11 1 52
+ 0.200008 11 416 tcp 1500 ------- 0 11.0 415.11 2 53
r 0.200008 416 12 ack 40 ------- 0 415.12 12.0 0 27
+ 0.200008 12 416 tcp 1500 ------- 0 12.0 415.12 1 54
- 0.200008 12 416 tcp 1500 ------- 0 12.0 415.12 1 54
+ 0.200008 12 416 tcp 1500 ------- 0 12.0 415.12 2 55
r 0.200008 416 13 ack 40 ------- 0 415.13 13.0 0 28
+ 0.200008 13 416 tcp 1500 ------- 0 13.0 415.13 1 56
- 0.200008 13 416 tcp 1500 ------- 0 13.0 415.13 1 56
+ 0.200008 13 416 tcp 1500 ------- 0 13.0 415.13 2 57
r 0.200008 416 14 ack 40 ------- 0 415.14 14.0 0 29
+ 0.200008 14 416 tcp 1500 ------- 0 14.0 415.14 1 58
- 0.200008 14 416 tcp 1500 ------- 0 14.0 415.14 1 58
+ 0.200008 14 416 tcp 1500 ------- 0 14.0 415.14 2 59
- 0.200008 0 416 tcp 1500 ------- 0 0.0 415.0 2 31
- 0.200008 1 416 tcp 1500 ------- 0 1.0 415.1 2 33
- 0.200008 2 416 tcp 1500 ------- 0 2.0 415.2 2 35
- 0.200008 3 416 tcp 1500 ------- 0 3.0 415.3 2 37
- 0.200008 4 416 tcp 1500 ------- 0 4.0 415.4 2 39
- 0.200008 5 416 tcp 1500 ------- 0 5.0 415.5 2 41
- 0.200008 6 416 tcp 1500 ------- 0 6.0 415.6 2 43
- 0.200008 7 416 tcp 1500 ------- 0 7.0 415.7 2 45
- 0.200008 8 416 tcp 1500 ------- 0 8.0 415.8 2 47
- 0.200008 9 416 tcp 1500 ------- 0 9.0 415.9 2 49
- 0.200008 10 416 tcp 1500 ------- 0 10.0 415.10 2 51
- 0.200008 11 416 tcp 1500 ------- 0 11.0 415.11 2 53
- 0.200008 12 416 tcp 1500 ------- 0 12.0 415.12 2 55
- 0.200008 13 416 tcp 1500 ------- 0 13.0 415.13 2 57
- 0.200008 14 416 tcp 1500 ------- 0 14.0 415.14 2 59
r 0.20001 0 416 tcp 1500 ------- 0 0.0 415.0 1 30
+ 0.20001 416 415 tcp 1500 ------- 0 0.0 415.0 1 30
- 0.20001 416 415 tcp 1500 ------- 0 0.0 415.0 1 30
r 0.20001 1 416 tcp 1500 ------- 0 1.0 415.1 1 32
+ 0.20001 416 415 tcp 1500 ------- 0 1.0 415.1 1 32
r 0.20001 2 416 tcp 1500 ------- 0 2.0 415.2 1 34
+ 0.20001 416 415 tcp 1500 ------- 0 2.0 415.2 1 34
r 0.20001 3 416 tcp 1500 ------- 0 3.0 415.3 1 36
+ 0.20001 416 415 tcp 1500 ------- 0 3.0 415.3 1 36
r 0.20001 4 416 tcp 1500 ------- 0 4.0 415.4 1 38
+ 0.20001 416 415 tcp 1500 ------- 0 4.0 415.4 1 38
r 0.20001 5 416 tcp 1500 ------- 0 5.0 415.5 1 40
+ 0.20001 416 415 tcp 1500 ------- 0 5.0 415.5 1 40
r 0.20001 6 416 tcp 1500 ------- 0 6.0 415.6 1 42
+ 0.20001 416 415 tcp 1500 ------- 0 6.0 415.6 1 42
r 0.20001 7 416 tcp 1500 ------- 0 7.0 415.7 1 44
+ 0.20001 416 415 tcp 1500 ------- 0 7.0 415.7 1 44
r 0.20001 8 416 tcp 1500 ------- 0 8.0 415.8 1 46
+ 0.20001 416 415 tcp 1500 ------- 0 8.0 415.8 1 46
r 0.20001 9 416 tcp 1500 ------- 0 9.0 415.9 1 48
+ 0.20001 416 415 tcp 1500 ------- 0 9.0 415.9 1 48
r 0.20001 10 416 tcp 1500 ------- 0 10.0 415.10 1 50
+ 0.20001 416 415 tcp 1500 ------- 0 10.0 415.10 1 50
r 0.20001 11 416 tcp 1500 ------- 0 11.0 415.11 1 52
+ 0.20001 416 415 tcp 1500 ------- 0 11.0 415.11 1 52
r 0.20001 12 416 tcp 1500 ------- 0 12.0 415.12 1 54
+ 0.20001 416 415 tcp 1500 ------- 0 12.0 415.12 1 54
r 0.20001 13 416 tcp 1500 ------- 0 13.0 415.13 1 56
+ 0.20001 416 415 tcp 1500 ------- 0 13.0 415.13 1 56
r 0.20001 14 416 tcp 1500 ------- 0 14.0 415.14 1 58
+ 0.20001 416 415 tcp 1500 ------- 0 14.0 415.14 1 58
r 0.20001 0 416 tcp 1500 ------- 0 0.0 415.0 2 31
+ 0.20001 416 415 tcp 1500 ------- 0 0.0 415.0 2 31
- 0.20001 416 415 tcp 1500 ------- 0 1.0 415.1 1 32
r 0.20001 1 416 tcp 1500 ------- 0 1.0 415.1 2 33
+ 0.20001 416 415 tcp 1500 ------- 0 1.0 415.1 2 33
r 0.20001 2 416 tcp 1500 ------- 0 2.0 415.2 2 35
+ 0.20001 416 415 tcp 1500 ------- 0 2.0 415.2 2 35
r 0.20001 3 416 tcp 1500 ------- 0 3.0 415.3 2 37
+ 0.20001 416 415 tcp 1500 ------- 0 3.0 415.3 2 37
r 0.20001 4 416 tcp 1500 ------- 0 4.0 415.4 2 39
+ 0.20001 416 415 tcp 1500 ------- 0 4.0 415.4 2 39
r 0.20001 5 416 tcp 1500 ------- 0 5.0 415.5 2 41
+ 0.20001 416 415 tcp 1500 ------- 0 5.0 415.5 2 41
r 0.20001 6 416 tcp 1500 ------- 0 6.0 415.6 2 43
+ 0.20001 416 415 tcp 1500 ------- 0 6.0 415.6 2 43
r 0.20001 7 416 tcp 1500 ------- 0 7.0 415.7 2 45
+ 0.20001 416 415 tcp 1500 ------- 0 7.0 415.7 2 45
r 0.20001 8 416 tcp 1500 ------- 0 8.0 415.8 2 47
+ 0.20001 416 415 tcp 1500 ------- 0 8.0 415.8 2 47
r 0.20001 9 416 tcp 1500 ------- 0 9.0 415.9 2 49
+ 0.20001 416 415 tcp 1500 ------- 0 9.0 415.9 2 49
r 0.20001 10 416 tcp 1500 ------- 0 10.0 415.10 2 51
+ 0.20001 416 415 tcp 1500 ------- 0 10.0 415.10 2 51
r 0.20001 11 416 tcp 1500 ------- 0 11.0 415.11 2 53
+ 0.20001 416 415 tcp 1500 ------- 0 11.0 415.11 2 53
r 0.20001 12 416 tcp 1500 ------- 0 12.0 415.12 2 55
+ 0.20001 416 415 tcp 1500 ------- 0 12.0 415.12 2 55
r 0.20001 13 416 tcp 1500 ------- 0 13.0 415.13 2 57
+ 0.20001 416 415 tcp 1500 ------- 0 13.0 415.13 2 57
r 0.20001 14 416 tcp 1500 ------- 0 14.0 415.14 2 59
+ 0.20001 416 415 tcp 1500 ------- 0 14.0 415.14 2 59
- 0.20001 416 415 tcp 1500 ------- 0 2.0 415.2 1 34
- 0.20001 416 415 tcp 1500 ------- 0 3.0 415.3 1 36
- 0.200011 416 415 tcp 1500 ------- 0 4.0 415.4 1 38
- 0.200011 416 415 tcp 1500 ------- 0 5.0 415.5 1 40
- 0.200011 416 415 tcp 1500 ------- 0 6.0 415.6 1 42
- 0.200011 416 415 tcp 1500 ------- 0 7.0 415.7 1 44
- 0.200011 416 415 tcp 1500 ------- 0 8.0 415.8 1 46
- 0.200011 416 415 tcp 1500 ------- 0 9.0 415.9 1 48
- 0.200011 416 415 tcp 1500 ------- 0 10.0 415.10 1 50
- 0.200011 416 415 tcp 1500 ------- 0 11.0 415.11 1 52
- 0.200012 416 415 tcp 1500 ------- 0 12.0 415.12 1 54
- 0.200012 416 415 tcp 1500 ------- 0 13.0 415.13 1 56
- 0.200012 416 415 tcp 1500 ------- 0 14.0 415.14 1 58
- 0.200012 416 415 tcp 1500 ------- 0 0.0 415.0 2 31
- 0.200012 416 415 tcp 1500 ------- 0 1.0 415.1 2 33
- 0.200012 416 415 tcp 1500 ------- 0 2.0 415.2 2 35
r 0.200012 416 415 tcp 1500 ------- 0 0.0 415.0 1 30
+ 0.200012 415 416 ack 40 ------- 0 415.0 0.0 1 60
- 0.200012 415 416 ack 40 ------- 0 415.0 0.0 1 60
- 0.200012 416 415 tcp 1500 ------- 0 3.0 415.3 2 37
r 0.200012 416 415 tcp 1500 ------- 0 1.0 415.1 1 32
+ 0.200012 415 416 ack 40 ------- 0 415.1 1.0 1 61
- 0.200012 415 416 ack 40 ------- 0 415.1 1.0 1 61
- 0.200012 416 415 tcp 1500 ------- 0 4.0 415.4 2 39
r 0.200012 416 415 tcp 1500 ------- 0 2.0 415.2 1 34
+ 0.200012 415 416 ack 40 ------- 0 415.2 2.0 1 62
- 0.200012 415 416 ack 40 ------- 0 415.2 2.0 1 62
- 0.200013 416 415 tcp 1500 ------- 0 5.0 415.5 2 41
r 0.200013 416 415 tcp 1500 ------- 0 3.0 415.3 1 36
+ 0.200013 415 416 ack 40 ------- 0 415.3 3.0 1 63
- 0.200013 415 416 ack 40 ------- 0 415.3 3.0 1 63
- 0.200013 416 415 tcp 1500 ------- 0 6.0 415.6 2 43
r 0.200013 416 415 tcp 1500 ------- 0 4.0 415.4 1 38
+ 0.200013 415 416 ack 40 ------- 0 415.4 4.0 1 64
- 0.200013 415 416 ack 40 ------- 0 415.4 4.0 1 64
- 0.200013 416 415 tcp 1500 ------- 0 7.0 415.7 2 45
r 0.200013 416 415 tcp 1500 ------- 0 5.0 415.5 1 40
+ 0.200013 415 416 ack 40 ------- 0 415.5 5.0 1 65
- 0.200013 415 416 ack 40 ------- 0 415.5 5.0 1 65
- 0.200013 416 415 tcp 1500 ------- 0 8.0 415.8 2 47
r 0.200013 416 415 tcp 1500 ------- 0 6.0 415.6 1 42
+ 0.200013 415 416 ack 40 ------- 0 415.6 6.0 1 66
- 0.200013 415 416 ack 40 ------- 0 415.6 6.0 1 66
- 0.200013 416 415 tcp 1500 ------- 0 9.0 415.9 2 49
r 0.200013 416 415 tcp 1500 ------- 0 7.0 415.7 1 44
+ 0.200013 415 416 ack 40 ------- 0 415.7 7.0 1 67
- 0.200013 415 416 ack 40 ------- 0 415.7 7.0 1 67
- 0.200013 416 415 tcp 1500 ------- 0 10.0 415.10 2 51
r 0.200013 416 415 tcp 1500 ------- 0 8.0 415.8 1 46
+ 0.200013 415 416 ack 40 ------- 0 415.8 8.0 1 68
- 0.200013 415 416 ack 40 ------- 0 415.8 8.0 1 68
- 0.200013 416 415 tcp 1500 ------- 0 11.0 415.11 2 53
r 0.200013 416 415 tcp 1500 ------- 0 9.0 415.9 1 48
+ 0.200013 415 416 ack 40 ------- 0 415.9 9.0 1 69
- 0.200013 415 416 ack 40 ------- 0 415.9 9.0 1 69
- 0.200013 416 415 tcp 1500 ------- 0 12.0 415.12 2 55
r 0.200013 416 415 tcp 1500 ------- 0 10.0 415.10 1 50
+ 0.200013 415 416 ack 40 ------- 0 415.10 10.0 1 70
- 0.200013 415 416 ack 40 ------- 0 415.10 10.0 1 70
- 0.200013 416 415 tcp 1500 ------- 0 13.0 415.13 2 57
r 0.200014 416 415 tcp 1500 ------- 0 11.0 415.11 1 52
+ 0.200014 415 416 ack 40 ------- 0 415.11 11.0 1 71
- 0.200014 415 416 ack 40 ------- 0 415.11 11.0 1 71
- 0.200014 416 415 tcp 1500 ------- 0 14.0 415.14 2 59
r 0.200014 416 415 tcp 1500 ------- 0 12.0 415.12 1 54
+ 0.200014 415 416 ack 40 ------- 0 415.12 12.0 1 72
- 0.200014 415 416 ack 40 ------- 0 415.12 12.0 1 72
r 0.200014 416 415 tcp 1500 ------- 0 13.0 415.13 1 56
+ 0.200014 415 416 ack 40 ------- 0 415.13 13.0 1 73
- 0.200014 415 416 ack 40 ------- 0 415.13 13.0 1 73
r 0.200014 416 415 tcp 1500 ------- 0 14.0 415.14 1 58
+ 0.200014 415 416 ack 40 ------- 0 415.14 14.0 1 74
- 0.200014 415 416 ack 40 ------- 0 415.14 14.0 1 74
r 0.200014 416 415 tcp 1500 ------- 0 0.0 415.0 2 31
+ 0.200014 415 416 ack 40 ------- 0 415.0 0.0 2 75
- 0.200014 415 416 ack 40 ------- 0 415.0 0.0 2 75
r 0.200014 416 415 tcp 1500 ------- 0 1.0 415.1 2 33
+ 0.200014 415 416 ack 40 ------- 0 415.1 1.0 2 76
- 0.200014 415 416 ack 40 ------- 0 415.1 1.0 2 76
r 0.200014 415 416 ack 40 ------- 0 415.0 0.0 1 60
+ 0.200014 416 0 ack 40 ------- 0 415.0 0.0 1 60
- 0.200014 416 0 ack 40 ------- 0 415.0 0.0 1 60
r 0.200014 416 415 tcp 1500 ------- 0 2.0 415.2 2 35
+ 0.200014 415 416 ack 40 ------- 0 415.2 2.0 2 77
- 0.200014 415 416 ack 40 ------- 0 415.2 2.0 2 77
r 0.200014 415 416 ack 40 ------- 0 415.1 1.0 1 61
+ 0.200014 416 1 ack 40 ------- 0 415.1 1.0 1 61
- 0.200014 416 1 ack 40 ------- 0 415.1 1.0 1 61
r 0.200014 416 415 tcp 1500 ------- 0 3.0 415.3 2 37
+ 0.200014 415 416 ack 40 ------- 0 415.3 3.0 2 78
- 0.200014 415 416 ack 40 ------- 0 415.3 3.0 2 78
r 0.200014 415 416 ack 40 ------- 0 415.2 2.0 1 62
+ 0.200014 416 2 ack 40 ------- 0 415.2 2.0 1 62
- 0.200014 416 2 ack 40 ------- 0 415.2 2.0 1 62
r 0.200015 416 415 tcp 1500 ------- 0 4.0 415.4 2 39
+ 0.200015 415 416 ack 40 ------- 0 415.4 4.0 2 79
- 0.200015 415 416 ack 40 ------- 0 415.4 4.0 2 79
r 0.200015 415 416 ack 40 ------- 0 415.3 3.0 1 63
+ 0.200015 416 3 ack 40 ------- 0 415.3 3.0 1 63
- 0.200015 416 3 ack 40 ------- 0 415.3 3.0 1 63
r 0.200015 416 415 tcp 1500 ------- 0 5.0 415.5 2 41
+ 0.200015 415 416 ack 40 ------- 0 415.5 5.0 2 80
- 0.200015 415 416 ack 40 ------- 0 415.5 5.0 2 80
r 0.200015 415 416 ack 40 ------- 0 415.4 4.0 1 64
+ 0.200015 416 4 ack 40 ------- 0 415.4 4.0 1 64
- 0.200015 416 4 ack 40 ------- 0 415.4 4.0 1 64
r 0.200015 416 415 tcp 1500 ------- 0 6.0 415.6 2 43
+ 0.200015 415 416 ack 40 ------- 0 415.6 6.0 2 81
- 0.200015 415 416 ack 40 ------- 0 415.6 6.0 2 81
r 0.200015 415 416 ack 40 ------- 0 415.5 5.0 1 65
+ 0.200015 416 5 ack 40 ------- 0 415.5 5.0 1 65
- 0.200015 416 5 ack 40 ------- 0 415.5 5.0 1 65
r 0.200015 416 415 tcp 1500 ------- 0 7.0 415.7 2 45
+ 0.200015 415 416 ack 40 ------- 0 415.7 7.0 2 82
- 0.200015 415 416 ack 40 ------- 0 415.7 7.0 2 82
r 0.200015 415 416 ack 40 ------- 0 415.6 6.0 1 66
+ 0.200015 416 6 ack 40 ------- 0 415.6 6.0 1 66
- 0.200015 416 6 ack 40 ------- 0 415.6 6.0 1 66
r 0.200015 416 415 tcp 1500 ------- 0 8.0 415.8 2 47
+ 0.200015 415 416 ack 40 ------- 0 415.8 8.0 2 83
- 0.200015 415 416 ack 40 ------- 0 415.8 8.0 2 83
r 0.200015 415 416 ack 40 ------- 0 415.7 7.0 1 67
+ 0.200015 416 7 ack 40 ------- 0 415.7 7.0 1 67
- 0.200015 416 7 ack 40 ------- 0 415.7 7.0 1 67
r 0.200015 416 415 tcp 1500 ------- 0 9.0 415.9 2 49
+ 0.200015 415 416 ack 40 ------- 0 415.9 9.0 2 84
- 0.200015 415 416 ack 40 ------- 0 415.9 9.0 2 84
r 0.200015 415 416 ack 40 ------- 0 415.8 8.0 1 68
+ 0.200015 416 8 ack 40 ------- 0 415.8 8.0 1 68
- 0.200015 416 8 ack 40 ------- 0 415.8 8.0 1 68
r 0.200015 416 415 tcp 1500 ------- 0 10.0 415.10 2 51
+ 0.200015 415 416 ack 40 ------- 0 415.10 10.0 2 85
- 0.200015 415 416 ack 40 ------- 0 415.10 10.0 2 85
r 0.200015 415 416 ack 40 ------- 0 415.9 9.0 1 69
+ 0.200015 416 9 ack 40 ------- 0 415.9 9.0 1 69
- 0.200015 416 9 ack 40 ------- 0 415.9 9.0 1 69
r 0.200015 416 415 tcp 1500 ------- 0 11.0 415.11 2 53
+ 0.200015 415 416 ack 40 ------- 0 415.11 11.0 2 86
- 0.200015 415 416 ack 40 ------- 0 415.11 11.0 2 86
r 0.200015 415 416 ack 40 ------- 0 415.10 10.0 1 70
+ 0.200015 416 10 ack 40 ------- 0 415.10 10.0 1 70
- 0.200015 416 10 ack 40 ------- 0 415.10 10.0 1 70
r 0.200015 416 415 tcp 1500 ------- 0 12.0 415.12 2 55
+ 0.200015 415 416 ack 40 ------- 0 415.12 12.0 2 87
- 0.200015 415 416 ack 40 ------- 0 415.12 12.0 2 87
r 0.200016 415 416 ack 40 ------- 0 415.11 11.0 1 71
+ 0.200016 416 11 ack 40 ------- 0 415.11 11.0 1 71
- 0.200016 416 11 ack 40 ------- 0 415.11 11.0 1 71
r 0.200016 416 415 tcp 1500 ------- 0 13.0 415.13 2 57
+ 0.200016 415 416 ack 40 ------- 0 415.13 13.0 2 88
- 0.200016 415 416 ack 40 ------- 0 415.13 13.0 2 88
r 0.200016 415 416 ack 40 ------- 0 415.12 12.0 1 72
+ 0.200016 416 12 ack 40 ------- 0 415.12 12.0 1 72
- 0.200016 416 12 ack 40 ------- 0 415.12 12.0 1 72
r 0.200016 416 415 tcp 1500 ------- 0 14.0 415.14 2 59
+ 0.200016 415 416 ack 40 ------- 0 415.14 14.0 2 89
- 0.200016 415 416 ack 40 ------- 0 415.14 14.0 2 89
r 0.200016 415 416 ack 40 ------- 0 415.13 13.0 1 73
+ 0.200016 416 13 ack 40 ------- 0 415.13 13.0 1 73
- 0.200016 416 13 ack 40 ------- 0 415.13 13.0 1 73
r 0.200016 415 416 ack 40 ------- 0 415.14 14.0 1 74
+ 0.200016 416 14 ack 40 ------- 0 415.14 14.0 1 74
- 0.200016 416 14 ack 40 ------- 0 415.14 14.0 1 74
r 0.200016 415 416 ack 40 ------- 0 415.0 0.0 2 75
+ 0.200016 416 0 ack 40 ------- 0 415.0 0.0 2 75
- 0.200016 416 0 ack 40 ------- 0 415.0 0.0 2 75
r 0.200016 415 416 ack 40 ------- 0 415.1 1.0 2 76
+ 0.200016 416 1 ack 40 ------- 0 415.1 1.0 2 76
- 0.200016 416 1 ack 40 ------- 0 415.1 1.0 2 76
r 0.200016 416 0 ack 40 ------- 0 415.0 0.0 1 60
+ 0.200016 0 416 tcp 1500 ------- 0 0.0 415.0 3 90
- 0.200016 0 416 tcp 1500 ------- 0 0.0 415.0 3 90
+ 0.200016 0 416 tcp 1500 ------- 0 0.0 415.0 4 91
r 0.200016 415 416 ack 40 ------- 0 415.2 2.0 2 77
+ 0.200016 416 2 ack 40 ------- 0 415.2 2.0 2 77
- 0.200016 416 2 ack 40 ------- 0 415.2 2.0 2 77
r 0.200016 416 1 ack 40 ------- 0 415.1 1.0 1 61
+ 0.200016 1 416 tcp 1500 ------- 0 1.0 415.1 3 92
- 0.200016 1 416 tcp 1500 ------- 0 1.0 415.1 3 92
+ 0.200016 1 416 tcp 1500 ------- 0 1.0 415.1 4 93
- 0.200016 0 416 tcp 1500 ------- 0 0.0 415.0 4 91
r 0.200016 415 416 ack 40 ------- 0 415.3 3.0 2 78
+ 0.200016 416 3 ack 40 ------- 0 415.3 3.0 2 78
- 0.200016 416 3 ack 40 ------- 0 415.3 3.0 2 78
r 0.200016 416 2 ack 40 ------- 0 415.2 2.0 1 62
+ 0.200016 2 416 tcp 1500 ------- 0 2.0 415.2 3 94
- 0.200016 2 416 tcp 1500 ------- 0 2.0 415.2 3 94
+ 0.200016 2 416 tcp 1500 ------- 0 2.0 415.2 4 95
- 0.200016 1 416 tcp 1500 ------- 0 1.0 415.1 4 93
r 0.200017 415 416 ack 40 ------- 0 415.4 4.0 2 79
+ 0.200017 416 4 ack 40 ------- 0 415.4 4.0 2 79
- 0.200017 416 4 ack 40 ------- 0 415.4 4.0 2 79
r 0.200017 416 3 ack 40 ------- 0 415.3 3.0 1 63
+ 0.200017 3 416 tcp 1500 ------- 0 3.0 415.3 3 96
- 0.200017 3 416 tcp 1500 ------- 0 3.0 415.3 3 96
+ 0.200017 3 416 tcp 1500 ------- 0 3.0 415.3 4 97
- 0.200017 2 416 tcp 1500 ------- 0 2.0 415.2 4 95
r 0.200017 415 416 ack 40 ------- 0 415.5 5.0 2 80
+ 0.200017 416 5 ack 40 ------- 0 415.5 5.0 2 80
- 0.200017 416 5 ack 40 ------- 0 415.5 5.0 2 80
r 0.200017 416 4 ack 40 ------- 0 415.4 4.0 1 64
+ 0.200017 4 416 tcp 1500 ------- 0 4.0 415.4 3 98
- 0.200017 4 416 tcp 1500 ------- 0 4.0 415.4 3 98
+ 0.200017 4 416 tcp 1500 ------- 0 4.0 415.4 4 99
- 0.200017 3 416 tcp 1500 ------- 0 3.0 415.3 4 97
r 0.200017 415 416 ack 40 ------- 0 415.6 6.0 2 81
+ 0.200017 416 6 ack 40 ------- 0 415.6 6.0 2 81
- 0.200017 416 6 ack 40 ------- 0 415.6 6.0 2 81
r 0.200017 416 5 ack 40 ------- 0 415.5 5.0 1 65
+ 0.200017 5 416 tcp 1500 ------- 0 5.0 415.5 3 100
- 0.200017 5 416 tcp 1500 ------- 0 5.0 415.5 3 100
+ 0.200017 5 416 tcp 1500 ------- 0 5.0 415.5 4 101
- 0.200017 4 416 tcp 1500 ------- 0 4.0 415.4 4 99
r 0.200017 415 416 ack 40 ------- 0 415.7 7.0 2 82
+ 0.200017 416 7 ack 40 ------- 0 415.7 7.0 2 82
- 0.200017 416 7 ack 40 ------- 0 415.7 7.0 2 82
r 0.200017 416 6 ack 40 ------- 0 415.6 6.0 1 66
+ 0.200017 6 416 tcp 1500 ------- 0 6.0 415.6 3 102
- 0.200017 6 416 tcp 1500 ------- 0 6.0 415.6 3 102
+ 0.200017 6 416 tcp 1500 ------- 0 6.0 415.6 4 103
- 0.200017 5 416 tcp 1500 ------- 0 5.0 415.5 4 101
r 0.200017 415 416 ack 40 ------- 0 415.8 8.0 2 83
+ 0.200017 416 8 ack 40 ------- 0 415.8 8.0 2 83
- 0.200017 416 8 ack 40 ------- 0 415.8 8.0 2 83
r 0.200017 416 7 ack 40 ------- 0 415.7 7.0 1 67
+ 0.200017 7 416 tcp 1500 ------- 0 7.0 415.7 3 104
- 0.200017 7 416 tcp 1500 ------- 0 7.0 415.7 3 104
+ 0.200017 7 416 tcp 1500 ------- 0 7.0 415.7 4 105
- 0.200017 6 416 tcp 1500 ------- 0 6.0 415.6 4 103
r 0.200017 415 416 ack 40 ------- 0 415.9 9.0 2 84
+ 0.200017 416 9 ack 40 ------- 0 415.9 9.0 2 84
- 0.200017 416 9 ack 40 ------- 0 415.9 9.0 2 84
r 0.200017 416 8 ack 40 ------- 0 415.8 8.0 1 68
+ 0.200017 8 416 tcp 1500 ------- 0 8.0 415.8 3 106
- 0.200017 8 416 tcp 1500 ------- 0 8.0 415.8 3 106
+ 0.200017 8 416 tcp 1500 ------- 0 8.0 415.8 4 107
- 0.200017 7 416 tcp 1500 ------- 0 7.0 415.7 4 105
r 0.200017 415 416 ack 40 ------- 0 415.10 10.0 2 85
+ 0.200017 416 10 ack 40 ------- 0 415.10 10.0 2 85
- 0.200017 416 10 ack 40 ------- 0 415.10 10.0 2 85
r 0.200017 416 9 ack 40 ------- 0 415.9 9.0 1 69
+ 0.200017 9 416 tcp 1500 ------- 0 9.0 415.9 3 108
- 0.200017 9 416 tcp 1500 ------- 0 9.0 415.9 3 108
+ 0.200017 9 416 tcp 1500 ------- 0 9.0 415.9 4 109
- 0.200017 8 416 tcp 1500 ------- 0 8.0 415.8 4 107
r 0.200017 415 416 ack 40 ------- 0 415.11 11.0 2 86
+ 0.200017 416 11 ack 40 ------- 0 415.11 11.0 2 86
- 0.200017 416 11 ack 40 ------- 0 415.11 11.0 2 86
r 0.200017 416 10 ack 40 ------- 0 415.10 10.0 1 70
+ 0.200017 10 416 tcp 1500 ------- 0 10.0 415.10 3 110
- 0.200017 10 416 tcp 1500 ------- 0 10.0 415.10 3 110
+ 0.200017 10 416 tcp 1500 ------- 0 10.0 415.10 4 111
- 0.200017 9 416 tcp 1500 ------- 0 9.0 415.9 4 109
r 0.200017 415 416 ack 40 ------- 0 415.12 12.0 2 87
+ 0.200017 416 12 ack 40 ------- 0 415.12 12.0 2 87
- 0.200017 416 12 ack 40 ------- 0 415.12 12.0 2 87
r 0.200018 416 11 ack 40 ------- 0 415.11 11.0 1 71
+ 0.200018 11 416 tcp 1500 ------- 0 11.0 415.11 3 112
- 0.200018 11 416 tcp 1500 ------- 0 11.0 415.11 3 112
+ 0.200018 11 416 tcp 1500 ------- 0 11.0 415.11 4 113
- 0.200018 10 416 tcp 1500 ------- 0 10.0 415.10 4 111
r 0.200018 415 416 ack 40 ------- 0 415.13 13.0 2 88
+ 0.200018 416 13 ack 40 ------- 0 415.13 13.0 2 88
- 0.200018 416 13 ack 40 ------- 0 415.13 13.0 2 88
r 0.200018 416 12 ack 40 ------- 0 415.12 12.0 1 72
+ 0.200018 12 416 tcp 1500 ------- 0 12.0 415.12 3 114
- 0.200018 12 416 tcp 1500 ------- 0 12.0 415.12 3 114
+ 0.200018 12 416 tcp 1500 ------- 0 12.0 415.12 4 115
- 0.200018 11 416 tcp 1500 ------- 0 11.0 415.11 4 113
r 0.200018 415 416 ack 40 ------- 0 415.14 14.0 2 89
+ 0.200018 416 14 ack 40 ------- 0 415.14 14.0 2 89
- 0.200018 416 14 ack 40 ------- 0 415.14 14.0 2 89
r 0.200018 416 13 ack 40 ------- 0 415.13 13.0 1 73
+ 0.200018 13 416 tcp 1500 ------- 0 13.0 415.13 3 116
- 0.200018 13 416 tcp 1500 ------- 0 13.0 415.13 3 116
+ 0.200018 13 416 tcp 1500 ------- 0 13.0 415.13 4 117
- 0.200018 12 416 tcp 1500 ------- 0 12.0 415.12 4 115
r 0.200018 416 14 ack 40 ------- 0 415.14 14.0 1 74
+ 0.200018 14 416 tcp 1500 ------- 0 14.0 415.14 3 118
- 0.200018 14 416 tcp 1500 ------- 0 14.0 415.14 3 118
+ 0.200018 14 416 tcp 1500 ------- 0 14.0 415.14 4 119
- 0.200018 13 416 tcp 1500 ------- 0 13.0 415.13 4 117
r 0.200018 416 0 ack 40 ------- 0 415.0 0.0 2 75
+ 0.200018 0 416 tcp 1500 ------- 0 0.0 415.0 5 120